PSF EXT CMAP XPLOR

         3 !NTITLE
* GENERATED BY CHARMM-GUI (HTTP://WWW.CHARMM-GUI.ORG) V3.7 ON OCT, 22. 2024. JOB
* GET A DIFFERENT CONFORMATION FOR LIPIDS PENETRATING PROTEIN / CHOL            
*  DATE:    10/22/24      9:45:10      CREATED BY USER: apache                  

     22320 !NATOM
         1 MEMB     1        CHL1     C3       CRL1     0.140000       12.0110           0
         2 MEMB     1        CHL1     H3       HGA1     0.900000E-01   1.00800           0
         3 MEMB     1        CHL1     O3       OHL     -0.660000       15.9994           0
         4 MEMB     1        CHL1     H3'      HOL      0.430000       1.00800           0
         5 MEMB     1        CHL1     C4       CRL2    -0.180000       12.0110           0
         6 MEMB     1        CHL1     H4A      HGA2     0.900000E-01   1.00800           0
         7 MEMB     1        CHL1     H4B      HGA2     0.900000E-01   1.00800           0
         8 MEMB     1        CHL1     C5       CEL1      0.00000       12.0110           0
         9 MEMB     1        CHL1     C6       CEL1    -0.150000       12.0110           0
        10 MEMB     1        CHL1     H6       HEL1     0.150000       1.00800           0
        11 MEMB     1        CHL1     C7       CRL2    -0.180000       12.0110           0
        12 MEMB     1        CHL1     H7A      HGA2     0.900000E-01   1.00800           0
        13 MEMB     1        CHL1     H7B      HGA2     0.900000E-01   1.00800           0
        14 MEMB     1        CHL1     C8       CRL1    -0.900000E-01   12.0110           0
        15 MEMB     1        CHL1     H8       HGA1     0.900000E-01   1.00800           0
        16 MEMB     1        CHL1     C14      CRL1    -0.900000E-01   12.0110           0
        17 MEMB     1        CHL1     H14      HGA1     0.900000E-01   1.00800           0
        18 MEMB     1        CHL1     C15      CRL2    -0.180000       12.0110           0
        19 MEMB     1        CHL1     H15A     HGA2     0.900000E-01   1.00800           0
        20 MEMB     1        CHL1     H15B     HGA2     0.900000E-01   1.00800           0
        21 MEMB     1        CHL1     C16      CRL2    -0.180000       12.0110           0
        22 MEMB     1        CHL1     H16A     HGA2     0.900000E-01   1.00800           0
        23 MEMB     1        CHL1     H16B     HGA2     0.900000E-01   1.00800           0
        24 MEMB     1        CHL1     C17      CRL1    -0.900000E-01   12.0110           0
        25 MEMB     1        CHL1     H17      HGA1     0.900000E-01   1.00800           0
        26 MEMB     1        CHL1     C13      CRL1      0.00000       12.0110           0
        27 MEMB     1        CHL1     C18      CTL3    -0.270000       12.0110           0
        28 MEMB     1        CHL1     H18A     HAL3     0.900000E-01   1.00800           0
        29 MEMB     1        CHL1     H18B     HAL3     0.900000E-01   1.00800           0
        30 MEMB     1        CHL1     H18C     HAL3     0.900000E-01   1.00800           0
        31 MEMB     1        CHL1     C12      CRL2    -0.180000       12.0110           0
        32 MEMB     1        CHL1     H12A     HGA2     0.900000E-01   1.00800           0
        33 MEMB     1        CHL1     H12B     HGA2     0.900000E-01   1.00800           0
        34 MEMB     1        CHL1     C11      CRL2    -0.180000       12.0110           0
        35 MEMB     1        CHL1     H11A     HGA2     0.900000E-01   1.00800           0
        36 MEMB     1        CHL1     H11B     HGA2     0.900000E-01   1.00800           0
        37 MEMB     1        CHL1     C9       CRL1    -0.900000E-01   12.0110           0
        38 MEMB     1        CHL1     H9       HGA1     0.900000E-01   1.00800           0
        39 MEMB     1        CHL1     C10      CRL1      0.00000       12.0110           0
        40 MEMB     1        CHL1     C19      CTL3    -0.270000       12.0110           0
        41 MEMB     1        CHL1     H19A     HAL3     0.900000E-01   1.00800           0
        42 MEMB     1        CHL1     H19B     HAL3     0.900000E-01   1.00800           0
        43 MEMB     1        CHL1     H19C     HAL3     0.900000E-01   1.00800           0
        44 MEMB     1        CHL1     C1       CRL2    -0.180000       12.0110           0
        45 MEMB     1        CHL1     H1A      HGA2     0.900000E-01   1.00800           0
        46 MEMB     1        CHL1     H1B      HGA2     0.900000E-01   1.00800           0
        47 MEMB     1        CHL1     C2       CRL2    -0.180000       12.0110           0
        48 MEMB     1        CHL1     H2A      HGA2     0.900000E-01   1.00800           0
        49 MEMB     1        CHL1     H2B      HGA2     0.900000E-01   1.00800           0
        50 MEMB     1        CHL1     C20      CTL1    -0.900000E-01   12.0110           0
        51 MEMB     1        CHL1     H20      HAL1     0.900000E-01   1.00800           0
        52 MEMB     1        CHL1     C21      CTL3    -0.270000       12.0110           0
        53 MEMB     1        CHL1     H21A     HAL3     0.900000E-01   1.00800           0
        54 MEMB     1        CHL1     H21B     HAL3     0.900000E-01   1.00800           0
        55 MEMB     1        CHL1     H21C     HAL3     0.900000E-01   1.00800           0
        56 MEMB     1        CHL1     C22      CTL2    -0.180000       12.0110           0
        57 MEMB     1        CHL1     H22A     HAL2     0.900000E-01   1.00800           0
        58 MEMB     1        CHL1     H22B     HAL2     0.900000E-01   1.00800           0
        59 MEMB     1        CHL1     C23      CTL2    -0.180000       12.0110           0
        60 MEMB     1        CHL1     H23A     HAL2     0.900000E-01   1.00800           0
        61 MEMB     1        CHL1     H23B     HAL2     0.900000E-01   1.00800           0
        62 MEMB     1        CHL1     C24      CTL2    -0.180000       12.0110           0
        63 MEMB     1        CHL1     H24A     HAL2     0.900000E-01   1.00800           0
        64 MEMB     1        CHL1     H24B     HAL2     0.900000E-01   1.00800           0
        65 MEMB     1        CHL1     C25      CTL1    -0.900000E-01   12.0110           0
        66 MEMB     1        CHL1     H25      HAL1     0.900000E-01   1.00800           0
        67 MEMB     1        CHL1     C26      CTL3    -0.270000       12.0110           0
        68 MEMB     1        CHL1     H26A     HAL3     0.900000E-01   1.00800           0
        69 MEMB     1        CHL1     H26B     HAL3     0.900000E-01   1.00800           0
        70 MEMB     1        CHL1     H26C     HAL3     0.900000E-01   1.00800           0
        71 MEMB     1        CHL1     C27      CTL3    -0.270000       12.0110           0
        72 MEMB     1        CHL1     H27A     HAL3     0.900000E-01   1.00800           0
        73 MEMB     1        CHL1     H27B     HAL3     0.900000E-01   1.00800           0
        74 MEMB     1        CHL1     H27C     HAL3     0.900000E-01   1.00800           0
        75 MEMB     2        SLPC     N        NTL     -0.600000       14.0070           0
        76 MEMB     2        SLPC     C13      CTL5    -0.350000       12.0110           0
        77 MEMB     2        SLPC     H13A     HL       0.250000       1.00800           0
        78 MEMB     2        SLPC     H13B     HL       0.250000       1.00800           0
        79 MEMB     2        SLPC     H13C     HL       0.250000       1.00800           0
        80 MEMB     2        SLPC     C14      CTL5    -0.350000       12.0110           0
        81 MEMB     2        SLPC     H14A     HL       0.250000       1.00800           0
        82 MEMB     2        SLPC     H14B     HL       0.250000       1.00800           0
        83 MEMB     2        SLPC     H14C     HL       0.250000       1.00800           0
        84 MEMB     2        SLPC     C15      CTL5    -0.350000       12.0110           0
        85 MEMB     2        SLPC     H15A     HL       0.250000       1.00800           0
        86 MEMB     2        SLPC     H15B     HL       0.250000       1.00800           0
        87 MEMB     2        SLPC     H15C     HL       0.250000       1.00800           0
        88 MEMB     2        SLPC     C12      CTL2    -0.100000       12.0110           0
        89 MEMB     2        SLPC     H12A     HL       0.250000       1.00800           0
        90 MEMB     2        SLPC     H12B     HL       0.250000       1.00800           0
        91 MEMB     2        SLPC     C11      CTL2    -0.800000E-01   12.0110           0
        92 MEMB     2        SLPC     H11A     HAL2     0.900000E-01   1.00800           0
        93 MEMB     2        SLPC     H11B     HAL2     0.900000E-01   1.00800           0
        94 MEMB     2        SLPC     P        PL        1.50000       30.9740           0
        95 MEMB     2        SLPC     O13      O2L     -0.780000       15.9994           0
        96 MEMB     2        SLPC     O14      O2L     -0.780000       15.9994           0
        97 MEMB     2        SLPC     O12      OSLP    -0.570000       15.9994           0
        98 MEMB     2        SLPC     O11      OSLP    -0.570000       15.9994           0
        99 MEMB     2        SLPC     C1       CTL2    -0.800000E-01   12.0110           0
       100 MEMB     2        SLPC     HA       HAL2     0.900000E-01   1.00800           0
       101 MEMB     2        SLPC     HB       HAL2     0.900000E-01   1.00800           0
       102 MEMB     2        SLPC     C2       CTL1     0.170000       12.0110           0
       103 MEMB     2        SLPC     HS       HAL1     0.900000E-01   1.00800           0
       104 MEMB     2        SLPC     O21      OSL     -0.490000       15.9994           0
       105 MEMB     2        SLPC     C21      CL       0.900000       12.0110           0
       106 MEMB     2        SLPC     O22      OBL     -0.630000       15.9994           0
       107 MEMB     2        SLPC     C22      CTL2    -0.220000       12.0110           0
       108 MEMB     2        SLPC     H2R      HAL2     0.900000E-01   1.00800           0
       109 MEMB     2        SLPC     H2S      HAL2     0.900000E-01   1.00800           0
       110 MEMB     2        SLPC     C3       CTL2     0.800000E-01   12.0110           0
       111 MEMB     2        SLPC     HX       HAL2     0.900000E-01   1.00800           0
       112 MEMB     2        SLPC     HY       HAL2     0.900000E-01   1.00800           0
       113 MEMB     2        SLPC     O31      OSL     -0.490000       15.9994           0
       114 MEMB     2        SLPC     C31      CL       0.900000       12.0110           0
       115 MEMB     2        SLPC     O32      OBL     -0.630000       15.9994           0
       116 MEMB     2        SLPC     C32      CTL2    -0.220000       12.0110           0
       117 MEMB     2        SLPC     H2X      HAL2     0.900000E-01   1.00800           0
       118 MEMB     2        SLPC     H2Y      HAL2     0.900000E-01   1.00800           0
       119 MEMB     2        SLPC     C23      CTL2    -0.180000       12.0110           0
       120 MEMB     2        SLPC     H3R      HAL2     0.900000E-01   1.00800           0
       121 MEMB     2        SLPC     H3S      HAL2     0.900000E-01   1.00800           0
       122 MEMB     2        SLPC     C24      CTL2    -0.180000       12.0110           0
       123 MEMB     2        SLPC     H4R      HAL2     0.900000E-01   1.00800           0
       124 MEMB     2        SLPC     H4S      HAL2     0.900000E-01   1.00800           0
       125 MEMB     2        SLPC     C25      CTL2    -0.180000       12.0110           0
       126 MEMB     2        SLPC     H5R      HAL2     0.900000E-01   1.00800           0
       127 MEMB     2        SLPC     H5S      HAL2     0.900000E-01   1.00800           0
       128 MEMB     2        SLPC     C26      CTL2    -0.180000       12.0110           0
       129 MEMB     2        SLPC     H6R      HAL2     0.900000E-01   1.00800           0
       130 MEMB     2        SLPC     H6S      HAL2     0.900000E-01   1.00800           0
       131 MEMB     2        SLPC     C27      CTL2    -0.180000       12.0110           0
       132 MEMB     2        SLPC     H7R      HAL2     0.900000E-01   1.00800           0
       133 MEMB     2        SLPC     H7S      HAL2     0.900000E-01   1.00800           0
       134 MEMB     2        SLPC     C28      CTL2    -0.180000       12.0110           0
       135 MEMB     2        SLPC     H8R      HAL2     0.900000E-01   1.00800           0
       136 MEMB     2        SLPC     H8S      HAL2     0.900000E-01   1.00800           0
       137 MEMB     2        SLPC     C29      CEL1    -0.150000       12.0110           0
       138 MEMB     2        SLPC     H9R      HEL1     0.150000       1.00800           0
       139 MEMB     2        SLPC     C210     CEL1    -0.150000       12.0110           0
       140 MEMB     2        SLPC     H10R     HEL1     0.150000       1.00800           0
       141 MEMB     2        SLPC     C211     CTL2    -0.180000       12.0110           0
       142 MEMB     2        SLPC     H11R     HAL2     0.900000E-01   1.00800           0
       143 MEMB     2        SLPC     H11S     HAL2     0.900000E-01   1.00800           0
       144 MEMB     2        SLPC     C212     CEL1    -0.150000       12.0110           0
       145 MEMB     2        SLPC     H12R     HEL1     0.150000       1.00800           0
       146 MEMB     2        SLPC     C213     CEL1    -0.150000       12.0110           0
       147 MEMB     2        SLPC     H13R     HEL1     0.150000       1.00800           0
       148 MEMB     2        SLPC     C214     CTL2    -0.180000       12.0110           0
       149 MEMB     2        SLPC     H14R     HAL2     0.900000E-01   1.00800           0
       150 MEMB     2        SLPC     H14S     HAL2     0.900000E-01   1.00800           0
       151 MEMB     2        SLPC     C215     CTL2    -0.180000       12.0110           0
       152 MEMB     2        SLPC     H15R     HAL2     0.900000E-01   1.00800           0
       153 MEMB     2        SLPC     H15S     HAL2     0.900000E-01   1.00800           0
       154 MEMB     2        SLPC     C216     CTL2    -0.180000       12.0110           0
       155 MEMB     2        SLPC     H16R     HAL2     0.900000E-01   1.00800           0
       156 MEMB     2        SLPC     H16S     HAL2     0.900000E-01   1.00800           0
       157 MEMB     2        SLPC     C217     CTL2    -0.180000       12.0110           0
       158 MEMB     2        SLPC     H17R     HAL2     0.900000E-01   1.00800           0
       159 MEMB     2        SLPC     H17S     HAL2     0.900000E-01   1.00800           0
       160 MEMB     2        SLPC     C218     CTL3    -0.270000       12.0110           0
       161 MEMB     2        SLPC     H18R     HAL3     0.900000E-01   1.00800           0
       162 MEMB     2        SLPC     H18S     HAL3     0.900000E-01   1.00800           0
       163 MEMB     2        SLPC     H18T     HAL3     0.900000E-01   1.00800           0
       164 MEMB     2        SLPC     C33      CTL2    -0.180000       12.0110           0
       165 MEMB     2        SLPC     H3X      HAL2     0.900000E-01   1.00800           0
       166 MEMB     2        SLPC     H3Y      HAL2     0.900000E-01   1.00800           0
       167 MEMB     2        SLPC     C34      CTL2    -0.180000       12.0110           0
       168 MEMB     2        SLPC     H4X      HAL2     0.900000E-01   1.00800           0
       169 MEMB     2        SLPC     H4Y      HAL2     0.900000E-01   1.00800           0
       170 MEMB     2        SLPC     C35      CTL2    -0.180000       12.0110           0
       171 MEMB     2        SLPC     H5X      HAL2     0.900000E-01   1.00800           0
       172 MEMB     2        SLPC     H5Y      HAL2     0.900000E-01   1.00800           0
       173 MEMB     2        SLPC     C36      CTL2    -0.180000       12.0110           0
       174 MEMB     2        SLPC     H6X      HAL2     0.900000E-01   1.00800           0
       175 MEMB     2        SLPC     H6Y      HAL2     0.900000E-01   1.00800           0
       176 MEMB     2        SLPC     C37      CTL2    -0.180000       12.0110           0
       177 MEMB     2        SLPC     H7X      HAL2     0.900000E-01   1.00800           0
       178 MEMB     2        SLPC     H7Y      HAL2     0.900000E-01   1.00800           0
       179 MEMB     2        SLPC     C38      CTL2    -0.180000       12.0110           0
       180 MEMB     2        SLPC     H8X      HAL2     0.900000E-01   1.00800           0
       181 MEMB     2        SLPC     H8Y      HAL2     0.900000E-01   1.00800           0
       182 MEMB     2        SLPC     C39      CTL2    -0.180000       12.0110           0
       183 MEMB     2        SLPC     H9X      HAL2     0.900000E-01   1.00800           0
       184 MEMB     2        SLPC     H9Y      HAL2     0.900000E-01   1.00800           0
       185 MEMB     2        SLPC     C310     CTL2    -0.180000       12.0110           0
       186 MEMB     2        SLPC     H10X     HAL2     0.900000E-01   1.00800           0
       187 MEMB     2        SLPC     H10Y     HAL2     0.900000E-01   1.00800           0
       188 MEMB     2        SLPC     C311     CTL2    -0.180000       12.0110           0
       189 MEMB     2        SLPC     H11X     HAL2     0.900000E-01   1.00800           0
       190 MEMB     2        SLPC     H11Y     HAL2     0.900000E-01   1.00800           0
       191 MEMB     2        SLPC     C312     CTL2    -0.180000       12.0110           0
       192 MEMB     2        SLPC     H12X     HAL2     0.900000E-01   1.00800           0
       193 MEMB     2        SLPC     H12Y     HAL2     0.900000E-01   1.00800           0
       194 MEMB     2        SLPC     C313     CTL2    -0.180000       12.0110           0
       195 MEMB     2        SLPC     H13X     HAL2     0.900000E-01   1.00800           0
       196 MEMB     2        SLPC     H13Y     HAL2     0.900000E-01   1.00800           0
       197 MEMB     2        SLPC     C314     CTL2    -0.180000       12.0110           0
       198 MEMB     2        SLPC     H14X     HAL2     0.900000E-01   1.00800           0
       199 MEMB     2        SLPC     H14Y     HAL2     0.900000E-01   1.00800           0
       200 MEMB     2        SLPC     C315     CTL2    -0.180000       12.0110           0
       201 MEMB     2        SLPC     H15X     HAL2     0.900000E-01   1.00800           0
       202 MEMB     2        SLPC     H15Y     HAL2     0.900000E-01   1.00800           0
       203 MEMB     2        SLPC     C316     CTL2    -0.180000       12.0110           0
       204 MEMB     2        SLPC     H16X     HAL2     0.900000E-01   1.00800           0
       205 MEMB     2        SLPC     H16Y     HAL2     0.900000E-01   1.00800           0
       206 MEMB     2        SLPC     C317     CTL2    -0.180000       12.0110           0
       207 MEMB     2        SLPC     H17X     HAL2     0.900000E-01   1.00800           0
       208 MEMB     2        SLPC     H17Y     HAL2     0.900000E-01   1.00800           0
       209 MEMB     2        SLPC     C318     CTL3    -0.270000       12.0110           0
       210 MEMB     2        SLPC     H18X     HAL3     0.900000E-01   1.00800           0
       211 MEMB     2        SLPC     H18Y     HAL3     0.900000E-01   1.00800           0
       212 MEMB     2        SLPC     H18Z     HAL3     0.900000E-01   1.00800           0
       213 MEMB     3        POPC     N        NTL     -0.600000       14.0070           0
       214 MEMB     3        POPC     C12      CTL2    -0.100000       12.0110           0
       215 MEMB     3        POPC     H12A     HL       0.250000       1.00800           0
       216 MEMB     3        POPC     H12B     HL       0.250000       1.00800           0
       217 MEMB     3        POPC     C13      CTL5    -0.350000       12.0110           0
       218 MEMB     3        POPC     H13A     HL       0.250000       1.00800           0
       219 MEMB     3        POPC     H13B     HL       0.250000       1.00800           0
       220 MEMB     3        POPC     H13C     HL       0.250000       1.00800           0
       221 MEMB     3        POPC     C14      CTL5    -0.350000       12.0110           0
       222 MEMB     3        POPC     H14A     HL       0.250000       1.00800           0
       223 MEMB     3        POPC     H14B     HL       0.250000       1.00800           0
       224 MEMB     3        POPC     H14C     HL       0.250000       1.00800           0
       225 MEMB     3        POPC     C15      CTL5    -0.350000       12.0110           0
       226 MEMB     3        POPC     H15A     HL       0.250000       1.00800           0
       227 MEMB     3        POPC     H15B     HL       0.250000       1.00800           0
       228 MEMB     3        POPC     H15C     HL       0.250000       1.00800           0
       229 MEMB     3        POPC     C11      CTL2    -0.800000E-01   12.0110           0
       230 MEMB     3        POPC     H11A     HAL2     0.900000E-01   1.00800           0
       231 MEMB     3        POPC     H11B     HAL2     0.900000E-01   1.00800           0
       232 MEMB     3        POPC     P        PL        1.50000       30.9740           0
       233 MEMB     3        POPC     O13      O2L     -0.780000       15.9994           0
       234 MEMB     3        POPC     O14      O2L     -0.780000       15.9994           0
       235 MEMB     3        POPC     O12      OSLP    -0.570000       15.9994           0
       236 MEMB     3        POPC     O11      OSLP    -0.570000       15.9994           0
       237 MEMB     3        POPC     C1       CTL2    -0.800000E-01   12.0110           0
       238 MEMB     3        POPC     HA       HAL2     0.900000E-01   1.00800           0
       239 MEMB     3        POPC     HB       HAL2     0.900000E-01   1.00800           0
       240 MEMB     3        POPC     C2       CTL1     0.170000       12.0110           0
       241 MEMB     3        POPC     HS       HAL1     0.900000E-01   1.00800           0
       242 MEMB     3        POPC     O21      OSL     -0.490000       15.9994           0
       243 MEMB     3        POPC     C21      CL       0.900000       12.0110           0
       244 MEMB     3        POPC     O22      OBL     -0.630000       15.9994           0
       245 MEMB     3        POPC     C22      CTL2    -0.220000       12.0110           0
       246 MEMB     3        POPC     H2R      HAL2     0.900000E-01   1.00800           0
       247 MEMB     3        POPC     H2S      HAL2     0.900000E-01   1.00800           0
       248 MEMB     3        POPC     C3       CTL2     0.800000E-01   12.0110           0
       249 MEMB     3        POPC     HX       HAL2     0.900000E-01   1.00800           0
       250 MEMB     3        POPC     HY       HAL2     0.900000E-01   1.00800           0
       251 MEMB     3        POPC     O31      OSL     -0.490000       15.9994           0
       252 MEMB     3        POPC     C31      CL       0.900000       12.0110           0
       253 MEMB     3        POPC     O32      OBL     -0.630000       15.9994           0
       254 MEMB     3        POPC     C32      CTL2    -0.220000       12.0110           0
       255 MEMB     3        POPC     H2X      HAL2     0.900000E-01   1.00800           0
       256 MEMB     3        POPC     H2Y      HAL2     0.900000E-01   1.00800           0
       257 MEMB     3        POPC     C23      CTL2    -0.180000       12.0110           0
       258 MEMB     3        POPC     H3R      HAL2     0.900000E-01   1.00800           0
       259 MEMB     3        POPC     H3S      HAL2     0.900000E-01   1.00800           0
       260 MEMB     3        POPC     C24      CTL2    -0.180000       12.0110           0
       261 MEMB     3        POPC     H4R      HAL2     0.900000E-01   1.00800           0
       262 MEMB     3        POPC     H4S      HAL2     0.900000E-01   1.00800           0
       263 MEMB     3        POPC     C25      CTL2    -0.180000       12.0110           0
       264 MEMB     3        POPC     H5R      HAL2     0.900000E-01   1.00800           0
       265 MEMB     3        POPC     H5S      HAL2     0.900000E-01   1.00800           0
       266 MEMB     3        POPC     C26      CTL2    -0.180000       12.0110           0
       267 MEMB     3        POPC     H6R      HAL2     0.900000E-01   1.00800           0
       268 MEMB     3        POPC     H6S      HAL2     0.900000E-01   1.00800           0
       269 MEMB     3        POPC     C27      CTL2    -0.180000       12.0110           0
       270 MEMB     3        POPC     H7R      HAL2     0.900000E-01   1.00800           0
       271 MEMB     3        POPC     H7S      HAL2     0.900000E-01   1.00800           0
       272 MEMB     3        POPC     C28      CTL2    -0.180000       12.0110           0
       273 MEMB     3        POPC     H8R      HAL2     0.900000E-01   1.00800           0
       274 MEMB     3        POPC     H8S      HAL2     0.900000E-01   1.00800           0
       275 MEMB     3        POPC     C29      CEL1    -0.150000       12.0110           0
       276 MEMB     3        POPC     H91      HEL1     0.150000       1.00800           0
       277 MEMB     3        POPC     C210     CEL1    -0.150000       12.0110           0
       278 MEMB     3        POPC     H101     HEL1     0.150000       1.00800           0
       279 MEMB     3        POPC     C211     CTL2    -0.180000       12.0110           0
       280 MEMB     3        POPC     H11R     HAL2     0.900000E-01   1.00800           0
       281 MEMB     3        POPC     H11S     HAL2     0.900000E-01   1.00800           0
       282 MEMB     3        POPC     C212     CTL2    -0.180000       12.0110           0
       283 MEMB     3        POPC     H12R     HAL2     0.900000E-01   1.00800           0
       284 MEMB     3        POPC     H12S     HAL2     0.900000E-01   1.00800           0
       285 MEMB     3        POPC     C213     CTL2    -0.180000       12.0110           0
       286 MEMB     3        POPC     H13R     HAL2     0.900000E-01   1.00800           0
       287 MEMB     3        POPC     H13S     HAL2     0.900000E-01   1.00800           0
       288 MEMB     3        POPC     C214     CTL2    -0.180000       12.0110           0
       289 MEMB     3        POPC     H14R     HAL2     0.900000E-01   1.00800           0
       290 MEMB     3        POPC     H14S     HAL2     0.900000E-01   1.00800           0
       291 MEMB     3        POPC     C215     CTL2    -0.180000       12.0110           0
       292 MEMB     3        POPC     H15R     HAL2     0.900000E-01   1.00800           0
       293 MEMB     3        POPC     H15S     HAL2     0.900000E-01   1.00800           0
       294 MEMB     3        POPC     C216     CTL2    -0.180000       12.0110           0
       295 MEMB     3        POPC     H16R     HAL2     0.900000E-01   1.00800           0
       296 MEMB     3        POPC     H16S     HAL2     0.900000E-01   1.00800           0
       297 MEMB     3        POPC     C217     CTL2    -0.180000       12.0110           0
       298 MEMB     3        POPC     H17R     HAL2     0.900000E-01   1.00800           0
       299 MEMB     3        POPC     H17S     HAL2     0.900000E-01   1.00800           0
       300 MEMB     3        POPC     C218     CTL3    -0.270000       12.0110           0
       301 MEMB     3        POPC     H18R     HAL3     0.900000E-01   1.00800           0
       302 MEMB     3        POPC     H18S     HAL3     0.900000E-01   1.00800           0
       303 MEMB     3        POPC     H18T     HAL3     0.900000E-01   1.00800           0
       304 MEMB     3        POPC     C33      CTL2    -0.180000       12.0110           0
       305 MEMB     3        POPC     H3X      HAL2     0.900000E-01   1.00800           0
       306 MEMB     3        POPC     H3Y      HAL2     0.900000E-01   1.00800           0
       307 MEMB     3        POPC     C34      CTL2    -0.180000       12.0110           0
       308 MEMB     3        POPC     H4X      HAL2     0.900000E-01   1.00800           0
       309 MEMB     3        POPC     H4Y      HAL2     0.900000E-01   1.00800           0
       310 MEMB     3        POPC     C35      CTL2    -0.180000       12.0110           0
       311 MEMB     3        POPC     H5X      HAL2     0.900000E-01   1.00800           0
       312 MEMB     3        POPC     H5Y      HAL2     0.900000E-01   1.00800           0
       313 MEMB     3        POPC     C36      CTL2    -0.180000       12.0110           0
       314 MEMB     3        POPC     H6X      HAL2     0.900000E-01   1.00800           0
       315 MEMB     3        POPC     H6Y      HAL2     0.900000E-01   1.00800           0
       316 MEMB     3        POPC     C37      CTL2    -0.180000       12.0110           0
       317 MEMB     3        POPC     H7X      HAL2     0.900000E-01   1.00800           0
       318 MEMB     3        POPC     H7Y      HAL2     0.900000E-01   1.00800           0
       319 MEMB     3        POPC     C38      CTL2    -0.180000       12.0110           0
       320 MEMB     3        POPC     H8X      HAL2     0.900000E-01   1.00800           0
       321 MEMB     3        POPC     H8Y      HAL2     0.900000E-01   1.00800           0
       322 MEMB     3        POPC     C39      CTL2    -0.180000       12.0110           0
       323 MEMB     3        POPC     H9X      HAL2     0.900000E-01   1.00800           0
       324 MEMB     3        POPC     H9Y      HAL2     0.900000E-01   1.00800           0
       325 MEMB     3        POPC     C310     CTL2    -0.180000       12.0110           0
       326 MEMB     3        POPC     H10X     HAL2     0.900000E-01   1.00800           0
       327 MEMB     3        POPC     H10Y     HAL2     0.900000E-01   1.00800           0
       328 MEMB     3        POPC     C311     CTL2    -0.180000       12.0110           0
       329 MEMB     3        POPC     H11X     HAL2     0.900000E-01   1.00800           0
       330 MEMB     3        POPC     H11Y     HAL2     0.900000E-01   1.00800           0
       331 MEMB     3        POPC     C312     CTL2    -0.180000       12.0110           0
       332 MEMB     3        POPC     H12X     HAL2     0.900000E-01   1.00800           0
       333 MEMB     3        POPC     H12Y     HAL2     0.900000E-01   1.00800           0
       334 MEMB     3        POPC     C313     CTL2    -0.180000       12.0110           0
       335 MEMB     3        POPC     H13X     HAL2     0.900000E-01   1.00800           0
       336 MEMB     3        POPC     H13Y     HAL2     0.900000E-01   1.00800           0
       337 MEMB     3        POPC     C314     CTL2    -0.180000       12.0110           0
       338 MEMB     3        POPC     H14X     HAL2     0.900000E-01   1.00800           0
       339 MEMB     3        POPC     H14Y     HAL2     0.900000E-01   1.00800           0
       340 MEMB     3        POPC     C315     CTL2    -0.180000       12.0110           0
       341 MEMB     3        POPC     H15X     HAL2     0.900000E-01   1.00800           0
       342 MEMB     3        POPC     H15Y     HAL2     0.900000E-01   1.00800           0
       343 MEMB     3        POPC     C316     CTL3    -0.270000       12.0110           0
       344 MEMB     3        POPC     H16X     HAL3     0.900000E-01   1.00800           0
       345 MEMB     3        POPC     H16Y     HAL3     0.900000E-01   1.00800           0
       346 MEMB     3        POPC     H16Z     HAL3     0.900000E-01   1.00800           0
       347 MEMB     4        SLPC     N        NTL     -0.600000       14.0070           0
       348 MEMB     4        SLPC     C13      CTL5    -0.350000       12.0110           0
       349 MEMB     4        SLPC     H13A     HL       0.250000       1.00800           0
       350 MEMB     4        SLPC     H13B     HL       0.250000       1.00800           0
       351 MEMB     4        SLPC     H13C     HL       0.250000       1.00800           0
       352 MEMB     4        SLPC     C14      CTL5    -0.350000       12.0110           0
       353 MEMB     4        SLPC     H14A     HL       0.250000       1.00800           0
       354 MEMB     4        SLPC     H14B     HL       0.250000       1.00800           0
       355 MEMB     4        SLPC     H14C     HL       0.250000       1.00800           0
       356 MEMB     4        SLPC     C15      CTL5    -0.350000       12.0110           0
       357 MEMB     4        SLPC     H15A     HL       0.250000       1.00800           0
       358 MEMB     4        SLPC     H15B     HL       0.250000       1.00800           0
       359 MEMB     4        SLPC     H15C     HL       0.250000       1.00800           0
       360 MEMB     4        SLPC     C12      CTL2    -0.100000       12.0110           0
       361 MEMB     4        SLPC     H12A     HL       0.250000       1.00800           0
       362 MEMB     4        SLPC     H12B     HL       0.250000       1.00800           0
       363 MEMB     4        SLPC     C11      CTL2    -0.800000E-01   12.0110           0
       364 MEMB     4        SLPC     H11A     HAL2     0.900000E-01   1.00800           0
       365 MEMB     4        SLPC     H11B     HAL2     0.900000E-01   1.00800           0
       366 MEMB     4        SLPC     P        PL        1.50000       30.9740           0
       367 MEMB     4        SLPC     O13      O2L     -0.780000       15.9994           0
       368 MEMB     4        SLPC     O14      O2L     -0.780000       15.9994           0
       369 MEMB     4        SLPC     O12      OSLP    -0.570000       15.9994           0
       370 MEMB     4        SLPC     O11      OSLP    -0.570000       15.9994           0
       371 MEMB     4        SLPC     C1       CTL2    -0.800000E-01   12.0110           0
       372 MEMB     4        SLPC     HA       HAL2     0.900000E-01   1.00800           0
       373 MEMB     4        SLPC     HB       HAL2     0.900000E-01   1.00800           0
       374 MEMB     4        SLPC     C2       CTL1     0.170000       12.0110           0
       375 MEMB     4        SLPC     HS       HAL1     0.900000E-01   1.00800           0
       376 MEMB     4        SLPC     O21      OSL     -0.490000       15.9994           0
       377 MEMB     4        SLPC     C21      CL       0.900000       12.0110           0
       378 MEMB     4        SLPC     O22      OBL     -0.630000       15.9994           0
       379 MEMB     4        SLPC     C22      CTL2    -0.220000       12.0110           0
       380 MEMB     4        SLPC     H2R      HAL2     0.900000E-01   1.00800           0
       381 MEMB     4        SLPC     H2S      HAL2     0.900000E-01   1.00800           0
       382 MEMB     4        SLPC     C3       CTL2     0.800000E-01   12.0110           0
       383 MEMB     4        SLPC     HX       HAL2     0.900000E-01   1.00800           0
       384 MEMB     4        SLPC     HY       HAL2     0.900000E-01   1.00800           0
       385 MEMB     4        SLPC     O31      OSL     -0.490000       15.9994           0
       386 MEMB     4        SLPC     C31      CL       0.900000       12.0110           0
       387 MEMB     4        SLPC     O32      OBL     -0.630000       15.9994           0
       388 MEMB     4        SLPC     C32      CTL2    -0.220000       12.0110           0
       389 MEMB     4        SLPC     H2X      HAL2     0.900000E-01   1.00800           0
       390 MEMB     4        SLPC     H2Y      HAL2     0.900000E-01   1.00800           0
       391 MEMB     4        SLPC     C23      CTL2    -0.180000       12.0110           0
       392 MEMB     4        SLPC     H3R      HAL2     0.900000E-01   1.00800           0
       393 MEMB     4        SLPC     H3S      HAL2     0.900000E-01   1.00800           0
       394 MEMB     4        SLPC     C24      CTL2    -0.180000       12.0110           0
       395 MEMB     4        SLPC     H4R      HAL2     0.900000E-01   1.00800           0
       396 MEMB     4        SLPC     H4S      HAL2     0.900000E-01   1.00800           0
       397 MEMB     4        SLPC     C25      CTL2    -0.180000       12.0110           0
       398 MEMB     4        SLPC     H5R      HAL2     0.900000E-01   1.00800           0
       399 MEMB     4        SLPC     H5S      HAL2     0.900000E-01   1.00800           0
       400 MEMB     4        SLPC     C26      CTL2    -0.180000       12.0110           0
       401 MEMB     4        SLPC     H6R      HAL2     0.900000E-01   1.00800           0
       402 MEMB     4        SLPC     H6S      HAL2     0.900000E-01   1.00800           0
       403 MEMB     4        SLPC     C27      CTL2    -0.180000       12.0110           0
       404 MEMB     4        SLPC     H7R      HAL2     0.900000E-01   1.00800           0
       405 MEMB     4        SLPC     H7S      HAL2     0.900000E-01   1.00800           0
       406 MEMB     4        SLPC     C28      CTL2    -0.180000       12.0110           0
       407 MEMB     4        SLPC     H8R      HAL2     0.900000E-01   1.00800           0
       408 MEMB     4        SLPC     H8S      HAL2     0.900000E-01   1.00800           0
       409 MEMB     4        SLPC     C29      CEL1    -0.150000       12.0110           0
       410 MEMB     4        SLPC     H9R      HEL1     0.150000       1.00800           0
       411 MEMB     4        SLPC     C210     CEL1    -0.150000       12.0110           0
       412 MEMB     4        SLPC     H10R     HEL1     0.150000       1.00800           0
       413 MEMB     4        SLPC     C211     CTL2    -0.180000       12.0110           0
       414 MEMB     4        SLPC     H11R     HAL2     0.900000E-01   1.00800           0
       415 MEMB     4        SLPC     H11S     HAL2     0.900000E-01   1.00800           0
       416 MEMB     4        SLPC     C212     CEL1    -0.150000       12.0110           0
       417 MEMB     4        SLPC     H12R     HEL1     0.150000       1.00800           0
       418 MEMB     4        SLPC     C213     CEL1    -0.150000       12.0110           0
       419 MEMB     4        SLPC     H13R     HEL1     0.150000       1.00800           0
       420 MEMB     4        SLPC     C214     CTL2    -0.180000       12.0110           0
       421 MEMB     4        SLPC     H14R     HAL2     0.900000E-01   1.00800           0
       422 MEMB     4        SLPC     H14S     HAL2     0.900000E-01   1.00800           0
       423 MEMB     4        SLPC     C215     CTL2    -0.180000       12.0110           0
       424 MEMB     4        SLPC     H15R     HAL2     0.900000E-01   1.00800           0
       425 MEMB     4        SLPC     H15S     HAL2     0.900000E-01   1.00800           0
       426 MEMB     4        SLPC     C216     CTL2    -0.180000       12.0110           0
       427 MEMB     4        SLPC     H16R     HAL2     0.900000E-01   1.00800           0
       428 MEMB     4        SLPC     H16S     HAL2     0.900000E-01   1.00800           0
       429 MEMB     4        SLPC     C217     CTL2    -0.180000       12.0110           0
       430 MEMB     4        SLPC     H17R     HAL2     0.900000E-01   1.00800           0
       431 MEMB     4        SLPC     H17S     HAL2     0.900000E-01   1.00800           0
       432 MEMB     4        SLPC     C218     CTL3    -0.270000       12.0110           0
       433 MEMB     4        SLPC     H18R     HAL3     0.900000E-01   1.00800           0
       434 MEMB     4        SLPC     H18S     HAL3     0.900000E-01   1.00800           0
       435 MEMB     4        SLPC     H18T     HAL3     0.900000E-01   1.00800           0
       436 MEMB     4        SLPC     C33      CTL2    -0.180000       12.0110           0
       437 MEMB     4        SLPC     H3X      HAL2     0.900000E-01   1.00800           0
       438 MEMB     4        SLPC     H3Y      HAL2     0.900000E-01   1.00800           0
       439 MEMB     4        SLPC     C34      CTL2    -0.180000       12.0110           0
       440 MEMB     4        SLPC     H4X      HAL2     0.900000E-01   1.00800           0
       441 MEMB     4        SLPC     H4Y      HAL2     0.900000E-01   1.00800           0
       442 MEMB     4        SLPC     C35      CTL2    -0.180000       12.0110           0
       443 MEMB     4        SLPC     H5X      HAL2     0.900000E-01   1.00800           0
       444 MEMB     4        SLPC     H5Y      HAL2     0.900000E-01   1.00800           0
       445 MEMB     4        SLPC     C36      CTL2    -0.180000       12.0110           0
       446 MEMB     4        SLPC     H6X      HAL2     0.900000E-01   1.00800           0
       447 MEMB     4        SLPC     H6Y      HAL2     0.900000E-01   1.00800           0
       448 MEMB     4        SLPC     C37      CTL2    -0.180000       12.0110           0
       449 MEMB     4        SLPC     H7X      HAL2     0.900000E-01   1.00800           0
       450 MEMB     4        SLPC     H7Y      HAL2     0.900000E-01   1.00800           0
       451 MEMB     4        SLPC     C38      CTL2    -0.180000       12.0110           0
       452 MEMB     4        SLPC     H8X      HAL2     0.900000E-01   1.00800           0
       453 MEMB     4        SLPC     H8Y      HAL2     0.900000E-01   1.00800           0
       454 MEMB     4        SLPC     C39      CTL2    -0.180000       12.0110           0
       455 MEMB     4        SLPC     H9X      HAL2     0.900000E-01   1.00800           0
       456 MEMB     4        SLPC     H9Y      HAL2     0.900000E-01   1.00800           0
       457 MEMB     4        SLPC     C310     CTL2    -0.180000       12.0110           0
       458 MEMB     4        SLPC     H10X     HAL2     0.900000E-01   1.00800           0
       459 MEMB     4        SLPC     H10Y     HAL2     0.900000E-01   1.00800           0
       460 MEMB     4        SLPC     C311     CTL2    -0.180000       12.0110           0
       461 MEMB     4        SLPC     H11X     HAL2     0.900000E-01   1.00800           0
       462 MEMB     4        SLPC     H11Y     HAL2     0.900000E-01   1.00800           0
       463 MEMB     4        SLPC     C312     CTL2    -0.180000       12.0110           0
       464 MEMB     4        SLPC     H12X     HAL2     0.900000E-01   1.00800           0
       465 MEMB     4        SLPC     H12Y     HAL2     0.900000E-01   1.00800           0
       466 MEMB     4        SLPC     C313     CTL2    -0.180000       12.0110           0
       467 MEMB     4        SLPC     H13X     HAL2     0.900000E-01   1.00800           0
       468 MEMB     4        SLPC     H13Y     HAL2     0.900000E-01   1.00800           0
       469 MEMB     4        SLPC     C314     CTL2    -0.180000       12.0110           0
       470 MEMB     4        SLPC     H14X     HAL2     0.900000E-01   1.00800           0
       471 MEMB     4        SLPC     H14Y     HAL2     0.900000E-01   1.00800           0
       472 MEMB     4        SLPC     C315     CTL2    -0.180000       12.0110           0
       473 MEMB     4        SLPC     H15X     HAL2     0.900000E-01   1.00800           0
       474 MEMB     4        SLPC     H15Y     HAL2     0.900000E-01   1.00800           0
       475 MEMB     4        SLPC     C316     CTL2    -0.180000       12.0110           0
       476 MEMB     4        SLPC     H16X     HAL2     0.900000E-01   1.00800           0
       477 MEMB     4        SLPC     H16Y     HAL2     0.900000E-01   1.00800           0
       478 MEMB     4        SLPC     C317     CTL2    -0.180000       12.0110           0
       479 MEMB     4        SLPC     H17X     HAL2     0.900000E-01   1.00800           0
       480 MEMB     4        SLPC     H17Y     HAL2     0.900000E-01   1.00800           0
       481 MEMB     4        SLPC     C318     CTL3    -0.270000       12.0110           0
       482 MEMB     4        SLPC     H18X     HAL3     0.900000E-01   1.00800           0
       483 MEMB     4        SLPC     H18Y     HAL3     0.900000E-01   1.00800           0
       484 MEMB     4        SLPC     H18Z     HAL3     0.900000E-01   1.00800           0
       485 MEMB     5        OSM      N        NTL     -0.600000       14.0070           0
       486 MEMB     5        OSM      C15      CTL5    -0.350000       12.0110           0
       487 MEMB     5        OSM      H15A     HL       0.250000       1.00800           0
       488 MEMB     5        OSM      H15B     HL       0.250000       1.00800           0
       489 MEMB     5        OSM      H15C     HL       0.250000       1.00800           0
       490 MEMB     5        OSM      C14      CTL5    -0.350000       12.0110           0
       491 MEMB     5        OSM      H14A     HL       0.250000       1.00800           0
       492 MEMB     5        OSM      H14B     HL       0.250000       1.00800           0
       493 MEMB     5        OSM      H14C     HL       0.250000       1.00800           0
       494 MEMB     5        OSM      C13      CTL5    -0.350000       12.0110           0
       495 MEMB     5        OSM      H13A     HL       0.250000       1.00800           0
       496 MEMB     5        OSM      H13B     HL       0.250000       1.00800           0
       497 MEMB     5        OSM      H13C     HL       0.250000       1.00800           0
       498 MEMB     5        OSM      C12      CTL2    -0.100000       12.0110           0
       499 MEMB     5        OSM      H12A     HL       0.250000       1.00800           0
       500 MEMB     5        OSM      H12B     HL       0.250000       1.00800           0
       501 MEMB     5        OSM      C11      CTL2    -0.800000E-01   12.0110           0
       502 MEMB     5        OSM      H11A     HAL2     0.900000E-01   1.00800           0
       503 MEMB     5        OSM      H11B     HAL2     0.900000E-01   1.00800           0
       504 MEMB     5        OSM      P        PL        1.50000       30.9740           0
       505 MEMB     5        OSM      O13      O2L     -0.780000       15.9994           0
       506 MEMB     5        OSM      O14      O2L     -0.780000       15.9994           0
       507 MEMB     5        OSM      O11      OSLP    -0.570000       15.9994           0
       508 MEMB     5        OSM      O12      OSLP    -0.570000       15.9994           0
       509 MEMB     5        OSM      C1S      CTL2    -0.800000E-01   12.0110           0
       510 MEMB     5        OSM      H1S      HAL2     0.900000E-01   1.00800           0
       511 MEMB     5        OSM      H1T      HAL2     0.900000E-01   1.00800           0
       512 MEMB     5        OSM      NF       NHL     -0.700000       14.0070           0
       513 MEMB     5        OSM      HNF      H        0.350000       1.00800           0
       514 MEMB     5        OSM      C2S      CTL1     0.300000       12.0110           0
       515 MEMB     5        OSM      H2S      HAL1     0.500000E-01   1.00800           0
       516 MEMB     5        OSM      C3S      CTO1     0.500000       12.0110           0
       517 MEMB     5        OSM      H3S      HAL1    -0.110000       1.00800           0
       518 MEMB     5        OSM      O3       OHL     -0.690000       15.9994           0
       519 MEMB     5        OSM      HO3      HOL      0.300000       1.00800           0
       520 MEMB     5        OSM      C4S      CEL3    -0.150000       12.0110           0
       521 MEMB     5        OSM      H4S      HEL1     0.150000       1.00800           0
       522 MEMB     5        OSM      C5S      CEL3    -0.150000       12.0110           0
       523 MEMB     5        OSM      H5S      HEL1     0.150000       1.00800           0
       524 MEMB     5        OSM      C6S      CTL2    -0.180000       12.0110           0
       525 MEMB     5        OSM      H6S      HAL2     0.900000E-01   1.00800           0
       526 MEMB     5        OSM      H6T      HAL2     0.900000E-01   1.00800           0
       527 MEMB     5        OSM      C7S      CTL2    -0.180000       12.0110           0
       528 MEMB     5        OSM      H7S      HAL2     0.900000E-01   1.00800           0
       529 MEMB     5        OSM      H7T      HAL2     0.900000E-01   1.00800           0
       530 MEMB     5        OSM      C8S      CTL2    -0.180000       12.0110           0
       531 MEMB     5        OSM      H8S      HAL2     0.900000E-01   1.00800           0
       532 MEMB     5        OSM      H8T      HAL2     0.900000E-01   1.00800           0
       533 MEMB     5        OSM      C9S      CTL2    -0.180000       12.0110           0
       534 MEMB     5        OSM      H9S      HAL2     0.900000E-01   1.00800           0
       535 MEMB     5        OSM      H9T      HAL2     0.900000E-01   1.00800           0
       536 MEMB     5        OSM      C10S     CTL2    -0.180000       12.0110           0
       537 MEMB     5        OSM      H10S     HAL2     0.900000E-01   1.00800           0
       538 MEMB     5        OSM      H10T     HAL2     0.900000E-01   1.00800           0
       539 MEMB     5        OSM      C11S     CTL2    -0.180000       12.0110           0
       540 MEMB     5        OSM      H11S     HAL2     0.900000E-01   1.00800           0
       541 MEMB     5        OSM      H11T     HAL2     0.900000E-01   1.00800           0
       542 MEMB     5        OSM      C12S     CTL2    -0.180000       12.0110           0
       543 MEMB     5        OSM      H12S     HAL2     0.900000E-01   1.00800           0
       544 MEMB     5        OSM      H12T     HAL2     0.900000E-01   1.00800           0
       545 MEMB     5        OSM      C13S     CTL2    -0.180000       12.0110           0
       546 MEMB     5        OSM      H13S     HAL2     0.900000E-01   1.00800           0
       547 MEMB     5        OSM      H13T     HAL2     0.900000E-01   1.00800           0
       548 MEMB     5        OSM      C14S     CTL2    -0.180000       12.0110           0
       549 MEMB     5        OSM      H14S     HAL2     0.900000E-01   1.00800           0
       550 MEMB     5        OSM      H14T     HAL2     0.900000E-01   1.00800           0
       551 MEMB     5        OSM      C15S     CTL2    -0.180000       12.0110           0
       552 MEMB     5        OSM      H15S     HAL2     0.900000E-01   1.00800           0
       553 MEMB     5        OSM      H15T     HAL2     0.900000E-01   1.00800           0
       554 MEMB     5        OSM      C16S     CTL2    -0.180000       12.0110           0
       555 MEMB     5        OSM      H16S     HAL2     0.900000E-01   1.00800           0
       556 MEMB     5        OSM      H16T     HAL2     0.900000E-01   1.00800           0
       557 MEMB     5        OSM      C17S     CTL2    -0.180000       12.0110           0
       558 MEMB     5        OSM      H17S     HAL2     0.900000E-01   1.00800           0
       559 MEMB     5        OSM      H17T     HAL2     0.900000E-01   1.00800           0
       560 MEMB     5        OSM      C18S     CTL3    -0.270000       12.0110           0
       561 MEMB     5        OSM      H18S     HAL3     0.900000E-01   1.00800           0
       562 MEMB     5        OSM      H18T     HAL3     0.900000E-01   1.00800           0
       563 MEMB     5        OSM      H18U     HAL3     0.900000E-01   1.00800           0
       564 MEMB     5        OSM      C1F      C        0.550000       12.0110           0
       565 MEMB     5        OSM      OF       O       -0.600000       15.9994           0
       566 MEMB     5        OSM      C2F      CTL2    -0.700000E-01   12.0110           0
       567 MEMB     5        OSM      H2F      HAL2     0.600000E-01   1.00800           0
       568 MEMB     5        OSM      H2G      HAL2     0.600000E-01   1.00800           0
       569 MEMB     5        OSM      C3F      CTL2    -0.180000       12.0110           0
       570 MEMB     5        OSM      H3F      HAL2     0.900000E-01   1.00800           0
       571 MEMB     5        OSM      H3G      HAL2     0.900000E-01   1.00800           0
       572 MEMB     5        OSM      C4F      CTL2    -0.180000       12.0110           0
       573 MEMB     5        OSM      H4F      HAL2     0.900000E-01   1.00800           0
       574 MEMB     5        OSM      H4G      HAL2     0.900000E-01   1.00800           0
       575 MEMB     5        OSM      C5F      CTL2    -0.180000       12.0110           0
       576 MEMB     5        OSM      H5F      HAL2     0.900000E-01   1.00800           0
       577 MEMB     5        OSM      H5G      HAL2     0.900000E-01   1.00800           0
       578 MEMB     5        OSM      C6F      CTL2    -0.180000       12.0110           0
       579 MEMB     5        OSM      H6F      HAL2     0.900000E-01   1.00800           0
       580 MEMB     5        OSM      H6G      HAL2     0.900000E-01   1.00800           0
       581 MEMB     5        OSM      C7F      CTL2    -0.180000       12.0110           0
       582 MEMB     5        OSM      H7F      HAL2     0.900000E-01   1.00800           0
       583 MEMB     5        OSM      H7G      HAL2     0.900000E-01   1.00800           0
       584 MEMB     5        OSM      C8F      CTL2    -0.180000       12.0110           0
       585 MEMB     5        OSM      H8F      HAL2     0.900000E-01   1.00800           0
       586 MEMB     5        OSM      H8G      HAL2     0.900000E-01   1.00800           0
       587 MEMB     5        OSM      C9F      CEL1    -0.150000       12.0110           0
       588 MEMB     5        OSM      H9F      HEL1     0.150000       1.00800           0
       589 MEMB     5        OSM      C10F     CEL1    -0.150000       12.0110           0
       590 MEMB     5        OSM      H10F     HEL1     0.150000       1.00800           0
       591 MEMB     5        OSM      C11F     CTL2    -0.180000       12.0110           0
       592 MEMB     5        OSM      H11F     HAL2     0.900000E-01   1.00800           0
       593 MEMB     5        OSM      H11G     HAL2     0.900000E-01   1.00800           0
       594 MEMB     5        OSM      C12F     CTL2    -0.180000       12.0110           0
       595 MEMB     5        OSM      H12F     HAL2     0.900000E-01   1.00800           0
       596 MEMB     5        OSM      H12G     HAL2     0.900000E-01   1.00800           0
       597 MEMB     5        OSM      C13F     CTL2    -0.180000       12.0110           0
       598 MEMB     5        OSM      H13F     HAL2     0.900000E-01   1.00800           0
       599 MEMB     5        OSM      H13G     HAL2     0.900000E-01   1.00800           0
       600 MEMB     5        OSM      C14F     CTL2    -0.180000       12.0110           0
       601 MEMB     5        OSM      H14F     HAL2     0.900000E-01   1.00800           0
       602 MEMB     5        OSM      H14G     HAL2     0.900000E-01   1.00800           0
       603 MEMB     5        OSM      C15F     CTL2    -0.180000       12.0110           0
       604 MEMB     5        OSM      H15F     HAL2     0.900000E-01   1.00800           0
       605 MEMB     5        OSM      H15G     HAL2     0.900000E-01   1.00800           0
       606 MEMB     5        OSM      C16F     CTL2    -0.180000       12.0110           0
       607 MEMB     5        OSM      H16F     HAL2     0.900000E-01   1.00800           0
       608 MEMB     5        OSM      H16G     HAL2     0.900000E-01   1.00800           0
       609 MEMB     5        OSM      C17F     CTL2    -0.180000       12.0110           0
       610 MEMB     5        OSM      H17F     HAL2     0.900000E-01   1.00800           0
       611 MEMB     5        OSM      H17G     HAL2     0.900000E-01   1.00800           0
       612 MEMB     5        OSM      C18F     CTL3    -0.270000       12.0110           0
       613 MEMB     5        OSM      H18F     HAL3     0.900000E-01   1.00800           0
       614 MEMB     5        OSM      H18G     HAL3     0.900000E-01   1.00800           0
       615 MEMB     5        OSM      H18H     HAL3     0.900000E-01   1.00800           0
       616 MEMB     6        CHL1     C3       CRL1     0.140000       12.0110           0
       617 MEMB     6        CHL1     H3       HGA1     0.900000E-01   1.00800           0
       618 MEMB     6        CHL1     O3       OHL     -0.660000       15.9994           0
       619 MEMB     6        CHL1     H3'      HOL      0.430000       1.00800           0
       620 MEMB     6        CHL1     C4       CRL2    -0.180000       12.0110           0
       621 MEMB     6        CHL1     H4A      HGA2     0.900000E-01   1.00800           0
       622 MEMB     6        CHL1     H4B      HGA2     0.900000E-01   1.00800           0
       623 MEMB     6        CHL1     C5       CEL1      0.00000       12.0110           0
       624 MEMB     6        CHL1     C6       CEL1    -0.150000       12.0110           0
       625 MEMB     6        CHL1     H6       HEL1     0.150000       1.00800           0
       626 MEMB     6        CHL1     C7       CRL2    -0.180000       12.0110           0
       627 MEMB     6        CHL1     H7A      HGA2     0.900000E-01   1.00800           0
       628 MEMB     6        CHL1     H7B      HGA2     0.900000E-01   1.00800           0
       629 MEMB     6        CHL1     C8       CRL1    -0.900000E-01   12.0110           0
       630 MEMB     6        CHL1     H8       HGA1     0.900000E-01   1.00800           0
       631 MEMB     6        CHL1     C14      CRL1    -0.900000E-01   12.0110           0
       632 MEMB     6        CHL1     H14      HGA1     0.900000E-01   1.00800           0
       633 MEMB     6        CHL1     C15      CRL2    -0.180000       12.0110           0
       634 MEMB     6        CHL1     H15A     HGA2     0.900000E-01   1.00800           0
       635 MEMB     6        CHL1     H15B     HGA2     0.900000E-01   1.00800           0
       636 MEMB     6        CHL1     C16      CRL2    -0.180000       12.0110           0
       637 MEMB     6        CHL1     H16A     HGA2     0.900000E-01   1.00800           0
       638 MEMB     6        CHL1     H16B     HGA2     0.900000E-01   1.00800           0
       639 MEMB     6        CHL1     C17      CRL1    -0.900000E-01   12.0110           0
       640 MEMB     6        CHL1     H17      HGA1     0.900000E-01   1.00800           0
       641 MEMB     6        CHL1     C13      CRL1      0.00000       12.0110           0
       642 MEMB     6        CHL1     C18      CTL3    -0.270000       12.0110           0
       643 MEMB     6        CHL1     H18A     HAL3     0.900000E-01   1.00800           0
       644 MEMB     6        CHL1     H18B     HAL3     0.900000E-01   1.00800           0
       645 MEMB     6        CHL1     H18C     HAL3     0.900000E-01   1.00800           0
       646 MEMB     6        CHL1     C12      CRL2    -0.180000       12.0110           0
       647 MEMB     6        CHL1     H12A     HGA2     0.900000E-01   1.00800           0
       648 MEMB     6        CHL1     H12B     HGA2     0.900000E-01   1.00800           0
       649 MEMB     6        CHL1     C11      CRL2    -0.180000       12.0110           0
       650 MEMB     6        CHL1     H11A     HGA2     0.900000E-01   1.00800           0
       651 MEMB     6        CHL1     H11B     HGA2     0.900000E-01   1.00800           0
       652 MEMB     6        CHL1     C9       CRL1    -0.900000E-01   12.0110           0
       653 MEMB     6        CHL1     H9       HGA1     0.900000E-01   1.00800           0
       654 MEMB     6        CHL1     C10      CRL1      0.00000       12.0110           0
       655 MEMB     6        CHL1     C19      CTL3    -0.270000       12.0110           0
       656 MEMB     6        CHL1     H19A     HAL3     0.900000E-01   1.00800           0
       657 MEMB     6        CHL1     H19B     HAL3     0.900000E-01   1.00800           0
       658 MEMB     6        CHL1     H19C     HAL3     0.900000E-01   1.00800           0
       659 MEMB     6        CHL1     C1       CRL2    -0.180000       12.0110           0
       660 MEMB     6        CHL1     H1A      HGA2     0.900000E-01   1.00800           0
       661 MEMB     6        CHL1     H1B      HGA2     0.900000E-01   1.00800           0
       662 MEMB     6        CHL1     C2       CRL2    -0.180000       12.0110           0
       663 MEMB     6        CHL1     H2A      HGA2     0.900000E-01   1.00800           0
       664 MEMB     6        CHL1     H2B      HGA2     0.900000E-01   1.00800           0
       665 MEMB     6        CHL1     C20      CTL1    -0.900000E-01   12.0110           0
       666 MEMB     6        CHL1     H20      HAL1     0.900000E-01   1.00800           0
       667 MEMB     6        CHL1     C21      CTL3    -0.270000       12.0110           0
       668 MEMB     6        CHL1     H21A     HAL3     0.900000E-01   1.00800           0
       669 MEMB     6        CHL1     H21B     HAL3     0.900000E-01   1.00800           0
       670 MEMB     6        CHL1     H21C     HAL3     0.900000E-01   1.00800           0
       671 MEMB     6        CHL1     C22      CTL2    -0.180000       12.0110           0
       672 MEMB     6        CHL1     H22A     HAL2     0.900000E-01   1.00800           0
       673 MEMB     6        CHL1     H22B     HAL2     0.900000E-01   1.00800           0
       674 MEMB     6        CHL1     C23      CTL2    -0.180000       12.0110           0
       675 MEMB     6        CHL1     H23A     HAL2     0.900000E-01   1.00800           0
       676 MEMB     6        CHL1     H23B     HAL2     0.900000E-01   1.00800           0
       677 MEMB     6        CHL1     C24      CTL2    -0.180000       12.0110           0
       678 MEMB     6        CHL1     H24A     HAL2     0.900000E-01   1.00800           0
       679 MEMB     6        CHL1     H24B     HAL2     0.900000E-01   1.00800           0
       680 MEMB     6        CHL1     C25      CTL1    -0.900000E-01   12.0110           0
       681 MEMB     6        CHL1     H25      HAL1     0.900000E-01   1.00800           0
       682 MEMB     6        CHL1     C26      CTL3    -0.270000       12.0110           0
       683 MEMB     6        CHL1     H26A     HAL3     0.900000E-01   1.00800           0
       684 MEMB     6        CHL1     H26B     HAL3     0.900000E-01   1.00800           0
       685 MEMB     6        CHL1     H26C     HAL3     0.900000E-01   1.00800           0
       686 MEMB     6        CHL1     C27      CTL3    -0.270000       12.0110           0
       687 MEMB     6        CHL1     H27A     HAL3     0.900000E-01   1.00800           0
       688 MEMB     6        CHL1     H27B     HAL3     0.900000E-01   1.00800           0
       689 MEMB     6        CHL1     H27C     HAL3     0.900000E-01   1.00800           0
       690 MEMB     7        OSM      N        NTL     -0.600000       14.0070           0
       691 MEMB     7        OSM      C15      CTL5    -0.350000       12.0110           0
       692 MEMB     7        OSM      H15A     HL       0.250000       1.00800           0
       693 MEMB     7        OSM      H15B     HL       0.250000       1.00800           0
       694 MEMB     7        OSM      H15C     HL       0.250000       1.00800           0
       695 MEMB     7        OSM      C14      CTL5    -0.350000       12.0110           0
       696 MEMB     7        OSM      H14A     HL       0.250000       1.00800           0
       697 MEMB     7        OSM      H14B     HL       0.250000       1.00800           0
       698 MEMB     7        OSM      H14C     HL       0.250000       1.00800           0
       699 MEMB     7        OSM      C13      CTL5    -0.350000       12.0110           0
       700 MEMB     7        OSM      H13A     HL       0.250000       1.00800           0
       701 MEMB     7        OSM      H13B     HL       0.250000       1.00800           0
       702 MEMB     7        OSM      H13C     HL       0.250000       1.00800           0
       703 MEMB     7        OSM      C12      CTL2    -0.100000       12.0110           0
       704 MEMB     7        OSM      H12A     HL       0.250000       1.00800           0
       705 MEMB     7        OSM      H12B     HL       0.250000       1.00800           0
       706 MEMB     7        OSM      C11      CTL2    -0.800000E-01   12.0110           0
       707 MEMB     7        OSM      H11A     HAL2     0.900000E-01   1.00800           0
       708 MEMB     7        OSM      H11B     HAL2     0.900000E-01   1.00800           0
       709 MEMB     7        OSM      P        PL        1.50000       30.9740           0
       710 MEMB     7        OSM      O13      O2L     -0.780000       15.9994           0
       711 MEMB     7        OSM      O14      O2L     -0.780000       15.9994           0
       712 MEMB     7        OSM      O11      OSLP    -0.570000       15.9994           0
       713 MEMB     7        OSM      O12      OSLP    -0.570000       15.9994           0
       714 MEMB     7        OSM      C1S      CTL2    -0.800000E-01   12.0110           0
       715 MEMB     7        OSM      H1S      HAL2     0.900000E-01   1.00800           0
       716 MEMB     7        OSM      H1T      HAL2     0.900000E-01   1.00800           0
       717 MEMB     7        OSM      NF       NHL     -0.700000       14.0070           0
       718 MEMB     7        OSM      HNF      H        0.350000       1.00800           0
       719 MEMB     7        OSM      C2S      CTL1     0.300000       12.0110           0
       720 MEMB     7        OSM      H2S      HAL1     0.500000E-01   1.00800           0
       721 MEMB     7        OSM      C3S      CTO1     0.500000       12.0110           0
       722 MEMB     7        OSM      H3S      HAL1    -0.110000       1.00800           0
       723 MEMB     7        OSM      O3       OHL     -0.690000       15.9994           0
       724 MEMB     7        OSM      HO3      HOL      0.300000       1.00800           0
       725 MEMB     7        OSM      C4S      CEL3    -0.150000       12.0110           0
       726 MEMB     7        OSM      H4S      HEL1     0.150000       1.00800           0
       727 MEMB     7        OSM      C5S      CEL3    -0.150000       12.0110           0
       728 MEMB     7        OSM      H5S      HEL1     0.150000       1.00800           0
       729 MEMB     7        OSM      C6S      CTL2    -0.180000       12.0110           0
       730 MEMB     7        OSM      H6S      HAL2     0.900000E-01   1.00800           0
       731 MEMB     7        OSM      H6T      HAL2     0.900000E-01   1.00800           0
       732 MEMB     7        OSM      C7S      CTL2    -0.180000       12.0110           0
       733 MEMB     7        OSM      H7S      HAL2     0.900000E-01   1.00800           0
       734 MEMB     7        OSM      H7T      HAL2     0.900000E-01   1.00800           0
       735 MEMB     7        OSM      C8S      CTL2    -0.180000       12.0110           0
       736 MEMB     7        OSM      H8S      HAL2     0.900000E-01   1.00800           0
       737 MEMB     7        OSM      H8T      HAL2     0.900000E-01   1.00800           0
       738 MEMB     7        OSM      C9S      CTL2    -0.180000       12.0110           0
       739 MEMB     7        OSM      H9S      HAL2     0.900000E-01   1.00800           0
       740 MEMB     7        OSM      H9T      HAL2     0.900000E-01   1.00800           0
       741 MEMB     7        OSM      C10S     CTL2    -0.180000       12.0110           0
       742 MEMB     7        OSM      H10S     HAL2     0.900000E-01   1.00800           0
       743 MEMB     7        OSM      H10T     HAL2     0.900000E-01   1.00800           0
       744 MEMB     7        OSM      C11S     CTL2    -0.180000       12.0110           0
       745 MEMB     7        OSM      H11S     HAL2     0.900000E-01   1.00800           0
       746 MEMB     7        OSM      H11T     HAL2     0.900000E-01   1.00800           0
       747 MEMB     7        OSM      C12S     CTL2    -0.180000       12.0110           0
       748 MEMB     7        OSM      H12S     HAL2     0.900000E-01   1.00800           0
       749 MEMB     7        OSM      H12T     HAL2     0.900000E-01   1.00800           0
       750 MEMB     7        OSM      C13S     CTL2    -0.180000       12.0110           0
       751 MEMB     7        OSM      H13S     HAL2     0.900000E-01   1.00800           0
       752 MEMB     7        OSM      H13T     HAL2     0.900000E-01   1.00800           0
       753 MEMB     7        OSM      C14S     CTL2    -0.180000       12.0110           0
       754 MEMB     7        OSM      H14S     HAL2     0.900000E-01   1.00800           0
       755 MEMB     7        OSM      H14T     HAL2     0.900000E-01   1.00800           0
       756 MEMB     7        OSM      C15S     CTL2    -0.180000       12.0110           0
       757 MEMB     7        OSM      H15S     HAL2     0.900000E-01   1.00800           0
       758 MEMB     7        OSM      H15T     HAL2     0.900000E-01   1.00800           0
       759 MEMB     7        OSM      C16S     CTL2    -0.180000       12.0110           0
       760 MEMB     7        OSM      H16S     HAL2     0.900000E-01   1.00800           0
       761 MEMB     7        OSM      H16T     HAL2     0.900000E-01   1.00800           0
       762 MEMB     7        OSM      C17S     CTL2    -0.180000       12.0110           0
       763 MEMB     7        OSM      H17S     HAL2     0.900000E-01   1.00800           0
       764 MEMB     7        OSM      H17T     HAL2     0.900000E-01   1.00800           0
       765 MEMB     7        OSM      C18S     CTL3    -0.270000       12.0110           0
       766 MEMB     7        OSM      H18S     HAL3     0.900000E-01   1.00800           0
       767 MEMB     7        OSM      H18T     HAL3     0.900000E-01   1.00800           0
       768 MEMB     7        OSM      H18U     HAL3     0.900000E-01   1.00800           0
       769 MEMB     7        OSM      C1F      C        0.550000       12.0110           0
       770 MEMB     7        OSM      OF       O       -0.600000       15.9994           0
       771 MEMB     7        OSM      C2F      CTL2    -0.700000E-01   12.0110           0
       772 MEMB     7        OSM      H2F      HAL2     0.600000E-01   1.00800           0
       773 MEMB     7        OSM      H2G      HAL2     0.600000E-01   1.00800           0
       774 MEMB     7        OSM      C3F      CTL2    -0.180000       12.0110           0
       775 MEMB     7        OSM      H3F      HAL2     0.900000E-01   1.00800           0
       776 MEMB     7        OSM      H3G      HAL2     0.900000E-01   1.00800           0
       777 MEMB     7        OSM      C4F      CTL2    -0.180000       12.0110           0
       778 MEMB     7        OSM      H4F      HAL2     0.900000E-01   1.00800           0
       779 MEMB     7        OSM      H4G      HAL2     0.900000E-01   1.00800           0
       780 MEMB     7        OSM      C5F      CTL2    -0.180000       12.0110           0
       781 MEMB     7        OSM      H5F      HAL2     0.900000E-01   1.00800           0
       782 MEMB     7        OSM      H5G      HAL2     0.900000E-01   1.00800           0
       783 MEMB     7        OSM      C6F      CTL2    -0.180000       12.0110           0
       784 MEMB     7        OSM      H6F      HAL2     0.900000E-01   1.00800           0
       785 MEMB     7        OSM      H6G      HAL2     0.900000E-01   1.00800           0
       786 MEMB     7        OSM      C7F      CTL2    -0.180000       12.0110           0
       787 MEMB     7        OSM      H7F      HAL2     0.900000E-01   1.00800           0
       788 MEMB     7        OSM      H7G      HAL2     0.900000E-01   1.00800           0
       789 MEMB     7        OSM      C8F      CTL2    -0.180000       12.0110           0
       790 MEMB     7        OSM      H8F      HAL2     0.900000E-01   1.00800           0
       791 MEMB     7        OSM      H8G      HAL2     0.900000E-01   1.00800           0
       792 MEMB     7        OSM      C9F      CEL1    -0.150000       12.0110           0
       793 MEMB     7        OSM      H9F      HEL1     0.150000       1.00800           0
       794 MEMB     7        OSM      C10F     CEL1    -0.150000       12.0110           0
       795 MEMB     7        OSM      H10F     HEL1     0.150000       1.00800           0
       796 MEMB     7        OSM      C11F     CTL2    -0.180000       12.0110           0
       797 MEMB     7        OSM      H11F     HAL2     0.900000E-01   1.00800           0
       798 MEMB     7        OSM      H11G     HAL2     0.900000E-01   1.00800           0
       799 MEMB     7        OSM      C12F     CTL2    -0.180000       12.0110           0
       800 MEMB     7        OSM      H12F     HAL2     0.900000E-01   1.00800           0
       801 MEMB     7        OSM      H12G     HAL2     0.900000E-01   1.00800           0
       802 MEMB     7        OSM      C13F     CTL2    -0.180000       12.0110           0
       803 MEMB     7        OSM      H13F     HAL2     0.900000E-01   1.00800           0
       804 MEMB     7        OSM      H13G     HAL2     0.900000E-01   1.00800           0
       805 MEMB     7        OSM      C14F     CTL2    -0.180000       12.0110           0
       806 MEMB     7        OSM      H14F     HAL2     0.900000E-01   1.00800           0
       807 MEMB     7        OSM      H14G     HAL2     0.900000E-01   1.00800           0
       808 MEMB     7        OSM      C15F     CTL2    -0.180000       12.0110           0
       809 MEMB     7        OSM      H15F     HAL2     0.900000E-01   1.00800           0
       810 MEMB     7        OSM      H15G     HAL2     0.900000E-01   1.00800           0
       811 MEMB     7        OSM      C16F     CTL2    -0.180000       12.0110           0
       812 MEMB     7        OSM      H16F     HAL2     0.900000E-01   1.00800           0
       813 MEMB     7        OSM      H16G     HAL2     0.900000E-01   1.00800           0
       814 MEMB     7        OSM      C17F     CTL2    -0.180000       12.0110           0
       815 MEMB     7        OSM      H17F     HAL2     0.900000E-01   1.00800           0
       816 MEMB     7        OSM      H17G     HAL2     0.900000E-01   1.00800           0
       817 MEMB     7        OSM      C18F     CTL3    -0.270000       12.0110           0
       818 MEMB     7        OSM      H18F     HAL3     0.900000E-01   1.00800           0
       819 MEMB     7        OSM      H18G     HAL3     0.900000E-01   1.00800           0
       820 MEMB     7        OSM      H18H     HAL3     0.900000E-01   1.00800           0
       821 MEMB     8        CHL1     C3       CRL1     0.140000       12.0110           0
       822 MEMB     8        CHL1     H3       HGA1     0.900000E-01   1.00800           0
       823 MEMB     8        CHL1     O3       OHL     -0.660000       15.9994           0
       824 MEMB     8        CHL1     H3'      HOL      0.430000       1.00800           0
       825 MEMB     8        CHL1     C4       CRL2    -0.180000       12.0110           0
       826 MEMB     8        CHL1     H4A      HGA2     0.900000E-01   1.00800           0
       827 MEMB     8        CHL1     H4B      HGA2     0.900000E-01   1.00800           0
       828 MEMB     8        CHL1     C5       CEL1      0.00000       12.0110           0
       829 MEMB     8        CHL1     C6       CEL1    -0.150000       12.0110           0
       830 MEMB     8        CHL1     H6       HEL1     0.150000       1.00800           0
       831 MEMB     8        CHL1     C7       CRL2    -0.180000       12.0110           0
       832 MEMB     8        CHL1     H7A      HGA2     0.900000E-01   1.00800           0
       833 MEMB     8        CHL1     H7B      HGA2     0.900000E-01   1.00800           0
       834 MEMB     8        CHL1     C8       CRL1    -0.900000E-01   12.0110           0
       835 MEMB     8        CHL1     H8       HGA1     0.900000E-01   1.00800           0
       836 MEMB     8        CHL1     C14      CRL1    -0.900000E-01   12.0110           0
       837 MEMB     8        CHL1     H14      HGA1     0.900000E-01   1.00800           0
       838 MEMB     8        CHL1     C15      CRL2    -0.180000       12.0110           0
       839 MEMB     8        CHL1     H15A     HGA2     0.900000E-01   1.00800           0
       840 MEMB     8        CHL1     H15B     HGA2     0.900000E-01   1.00800           0
       841 MEMB     8        CHL1     C16      CRL2    -0.180000       12.0110           0
       842 MEMB     8        CHL1     H16A     HGA2     0.900000E-01   1.00800           0
       843 MEMB     8        CHL1     H16B     HGA2     0.900000E-01   1.00800           0
       844 MEMB     8        CHL1     C17      CRL1    -0.900000E-01   12.0110           0
       845 MEMB     8        CHL1     H17      HGA1     0.900000E-01   1.00800           0
       846 MEMB     8        CHL1     C13      CRL1      0.00000       12.0110           0
       847 MEMB     8        CHL1     C18      CTL3    -0.270000       12.0110           0
       848 MEMB     8        CHL1     H18A     HAL3     0.900000E-01   1.00800           0
       849 MEMB     8        CHL1     H18B     HAL3     0.900000E-01   1.00800           0
       850 MEMB     8        CHL1     H18C     HAL3     0.900000E-01   1.00800           0
       851 MEMB     8        CHL1     C12      CRL2    -0.180000       12.0110           0
       852 MEMB     8        CHL1     H12A     HGA2     0.900000E-01   1.00800           0
       853 MEMB     8        CHL1     H12B     HGA2     0.900000E-01   1.00800           0
       854 MEMB     8        CHL1     C11      CRL2    -0.180000       12.0110           0
       855 MEMB     8        CHL1     H11A     HGA2     0.900000E-01   1.00800           0
       856 MEMB     8        CHL1     H11B     HGA2     0.900000E-01   1.00800           0
       857 MEMB     8        CHL1     C9       CRL1    -0.900000E-01   12.0110           0
       858 MEMB     8        CHL1     H9       HGA1     0.900000E-01   1.00800           0
       859 MEMB     8        CHL1     C10      CRL1      0.00000       12.0110           0
       860 MEMB     8        CHL1     C19      CTL3    -0.270000       12.0110           0
       861 MEMB     8        CHL1     H19A     HAL3     0.900000E-01   1.00800           0
       862 MEMB     8        CHL1     H19B     HAL3     0.900000E-01   1.00800           0
       863 MEMB     8        CHL1     H19C     HAL3     0.900000E-01   1.00800           0
       864 MEMB     8        CHL1     C1       CRL2    -0.180000       12.0110           0
       865 MEMB     8        CHL1     H1A      HGA2     0.900000E-01   1.00800           0
       866 MEMB     8        CHL1     H1B      HGA2     0.900000E-01   1.00800           0
       867 MEMB     8        CHL1     C2       CRL2    -0.180000       12.0110           0
       868 MEMB     8        CHL1     H2A      HGA2     0.900000E-01   1.00800           0
       869 MEMB     8        CHL1     H2B      HGA2     0.900000E-01   1.00800           0
       870 MEMB     8        CHL1     C20      CTL1    -0.900000E-01   12.0110           0
       871 MEMB     8        CHL1     H20      HAL1     0.900000E-01   1.00800           0
       872 MEMB     8        CHL1     C21      CTL3    -0.270000       12.0110           0
       873 MEMB     8        CHL1     H21A     HAL3     0.900000E-01   1.00800           0
       874 MEMB     8        CHL1     H21B     HAL3     0.900000E-01   1.00800           0
       875 MEMB     8        CHL1     H21C     HAL3     0.900000E-01   1.00800           0
       876 MEMB     8        CHL1     C22      CTL2    -0.180000       12.0110           0
       877 MEMB     8        CHL1     H22A     HAL2     0.900000E-01   1.00800           0
       878 MEMB     8        CHL1     H22B     HAL2     0.900000E-01   1.00800           0
       879 MEMB     8        CHL1     C23      CTL2    -0.180000       12.0110           0
       880 MEMB     8        CHL1     H23A     HAL2     0.900000E-01   1.00800           0
       881 MEMB     8        CHL1     H23B     HAL2     0.900000E-01   1.00800           0
       882 MEMB     8        CHL1     C24      CTL2    -0.180000       12.0110           0
       883 MEMB     8        CHL1     H24A     HAL2     0.900000E-01   1.00800           0
       884 MEMB     8        CHL1     H24B     HAL2     0.900000E-01   1.00800           0
       885 MEMB     8        CHL1     C25      CTL1    -0.900000E-01   12.0110           0
       886 MEMB     8        CHL1     H25      HAL1     0.900000E-01   1.00800           0
       887 MEMB     8        CHL1     C26      CTL3    -0.270000       12.0110           0
       888 MEMB     8        CHL1     H26A     HAL3     0.900000E-01   1.00800           0
       889 MEMB     8        CHL1     H26B     HAL3     0.900000E-01   1.00800           0
       890 MEMB     8        CHL1     H26C     HAL3     0.900000E-01   1.00800           0
       891 MEMB     8        CHL1     C27      CTL3    -0.270000       12.0110           0
       892 MEMB     8        CHL1     H27A     HAL3     0.900000E-01   1.00800           0
       893 MEMB     8        CHL1     H27B     HAL3     0.900000E-01   1.00800           0
       894 MEMB     8        CHL1     H27C     HAL3     0.900000E-01   1.00800           0
       895 MEMB     9        OSM      N        NTL     -0.600000       14.0070           0
       896 MEMB     9        OSM      C15      CTL5    -0.350000       12.0110           0
       897 MEMB     9        OSM      H15A     HL       0.250000       1.00800           0
       898 MEMB     9        OSM      H15B     HL       0.250000       1.00800           0
       899 MEMB     9        OSM      H15C     HL       0.250000       1.00800           0
       900 MEMB     9        OSM      C14      CTL5    -0.350000       12.0110           0
       901 MEMB     9        OSM      H14A     HL       0.250000       1.00800           0
       902 MEMB     9        OSM      H14B     HL       0.250000       1.00800           0
       903 MEMB     9        OSM      H14C     HL       0.250000       1.00800           0
       904 MEMB     9        OSM      C13      CTL5    -0.350000       12.0110           0
       905 MEMB     9        OSM      H13A     HL       0.250000       1.00800           0
       906 MEMB     9        OSM      H13B     HL       0.250000       1.00800           0
       907 MEMB     9        OSM      H13C     HL       0.250000       1.00800           0
       908 MEMB     9        OSM      C12      CTL2    -0.100000       12.0110           0
       909 MEMB     9        OSM      H12A     HL       0.250000       1.00800           0
       910 MEMB     9        OSM      H12B     HL       0.250000       1.00800           0
       911 MEMB     9        OSM      C11      CTL2    -0.800000E-01   12.0110           0
       912 MEMB     9        OSM      H11A     HAL2     0.900000E-01   1.00800           0
       913 MEMB     9        OSM      H11B     HAL2     0.900000E-01   1.00800           0
       914 MEMB     9        OSM      P        PL        1.50000       30.9740           0
       915 MEMB     9        OSM      O13      O2L     -0.780000       15.9994           0
       916 MEMB     9        OSM      O14      O2L     -0.780000       15.9994           0
       917 MEMB     9        OSM      O11      OSLP    -0.570000       15.9994           0
       918 MEMB     9        OSM      O12      OSLP    -0.570000       15.9994           0
       919 MEMB     9        OSM      C1S      CTL2    -0.800000E-01   12.0110           0
       920 MEMB     9        OSM      H1S      HAL2     0.900000E-01   1.00800           0
       921 MEMB     9        OSM      H1T      HAL2     0.900000E-01   1.00800           0
       922 MEMB     9        OSM      NF       NHL     -0.700000       14.0070           0
       923 MEMB     9        OSM      HNF      H        0.350000       1.00800           0
       924 MEMB     9        OSM      C2S      CTL1     0.300000       12.0110           0
       925 MEMB     9        OSM      H2S      HAL1     0.500000E-01   1.00800           0
       926 MEMB     9        OSM      C3S      CTO1     0.500000       12.0110           0
       927 MEMB     9        OSM      H3S      HAL1    -0.110000       1.00800           0
       928 MEMB     9        OSM      O3       OHL     -0.690000       15.9994           0
       929 MEMB     9        OSM      HO3      HOL      0.300000       1.00800           0
       930 MEMB     9        OSM      C4S      CEL3    -0.150000       12.0110           0
       931 MEMB     9        OSM      H4S      HEL1     0.150000       1.00800           0
       932 MEMB     9        OSM      C5S      CEL3    -0.150000       12.0110           0
       933 MEMB     9        OSM      H5S      HEL1     0.150000       1.00800           0
       934 MEMB     9        OSM      C6S      CTL2    -0.180000       12.0110           0
       935 MEMB     9        OSM      H6S      HAL2     0.900000E-01   1.00800           0
       936 MEMB     9        OSM      H6T      HAL2     0.900000E-01   1.00800           0
       937 MEMB     9        OSM      C7S      CTL2    -0.180000       12.0110           0
       938 MEMB     9        OSM      H7S      HAL2     0.900000E-01   1.00800           0
       939 MEMB     9        OSM      H7T      HAL2     0.900000E-01   1.00800           0
       940 MEMB     9        OSM      C8S      CTL2    -0.180000       12.0110           0
       941 MEMB     9        OSM      H8S      HAL2     0.900000E-01   1.00800           0
       942 MEMB     9        OSM      H8T      HAL2     0.900000E-01   1.00800           0
       943 MEMB     9        OSM      C9S      CTL2    -0.180000       12.0110           0
       944 MEMB     9        OSM      H9S      HAL2     0.900000E-01   1.00800           0
       945 MEMB     9        OSM      H9T      HAL2     0.900000E-01   1.00800           0
       946 MEMB     9        OSM      C10S     CTL2    -0.180000       12.0110           0
       947 MEMB     9        OSM      H10S     HAL2     0.900000E-01   1.00800           0
       948 MEMB     9        OSM      H10T     HAL2     0.900000E-01   1.00800           0
       949 MEMB     9        OSM      C11S     CTL2    -0.180000       12.0110           0
       950 MEMB     9        OSM      H11S     HAL2     0.900000E-01   1.00800           0
       951 MEMB     9        OSM      H11T     HAL2     0.900000E-01   1.00800           0
       952 MEMB     9        OSM      C12S     CTL2    -0.180000       12.0110           0
       953 MEMB     9        OSM      H12S     HAL2     0.900000E-01   1.00800           0
       954 MEMB     9        OSM      H12T     HAL2     0.900000E-01   1.00800           0
       955 MEMB     9        OSM      C13S     CTL2    -0.180000       12.0110           0
       956 MEMB     9        OSM      H13S     HAL2     0.900000E-01   1.00800           0
       957 MEMB     9        OSM      H13T     HAL2     0.900000E-01   1.00800           0
       958 MEMB     9        OSM      C14S     CTL2    -0.180000       12.0110           0
       959 MEMB     9        OSM      H14S     HAL2     0.900000E-01   1.00800           0
       960 MEMB     9        OSM      H14T     HAL2     0.900000E-01   1.00800           0
       961 MEMB     9        OSM      C15S     CTL2    -0.180000       12.0110           0
       962 MEMB     9        OSM      H15S     HAL2     0.900000E-01   1.00800           0
       963 MEMB     9        OSM      H15T     HAL2     0.900000E-01   1.00800           0
       964 MEMB     9        OSM      C16S     CTL2    -0.180000       12.0110           0
       965 MEMB     9        OSM      H16S     HAL2     0.900000E-01   1.00800           0
       966 MEMB     9        OSM      H16T     HAL2     0.900000E-01   1.00800           0
       967 MEMB     9        OSM      C17S     CTL2    -0.180000       12.0110           0
       968 MEMB     9        OSM      H17S     HAL2     0.900000E-01   1.00800           0
       969 MEMB     9        OSM      H17T     HAL2     0.900000E-01   1.00800           0
       970 MEMB     9        OSM      C18S     CTL3    -0.270000       12.0110           0
       971 MEMB     9        OSM      H18S     HAL3     0.900000E-01   1.00800           0
       972 MEMB     9        OSM      H18T     HAL3     0.900000E-01   1.00800           0
       973 MEMB     9        OSM      H18U     HAL3     0.900000E-01   1.00800           0
       974 MEMB     9        OSM      C1F      C        0.550000       12.0110           0
       975 MEMB     9        OSM      OF       O       -0.600000       15.9994           0
       976 MEMB     9        OSM      C2F      CTL2    -0.700000E-01   12.0110           0
       977 MEMB     9        OSM      H2F      HAL2     0.600000E-01   1.00800           0
       978 MEMB     9        OSM      H2G      HAL2     0.600000E-01   1.00800           0
       979 MEMB     9        OSM      C3F      CTL2    -0.180000       12.0110           0
       980 MEMB     9        OSM      H3F      HAL2     0.900000E-01   1.00800           0
       981 MEMB     9        OSM      H3G      HAL2     0.900000E-01   1.00800           0
       982 MEMB     9        OSM      C4F      CTL2    -0.180000       12.0110           0
       983 MEMB     9        OSM      H4F      HAL2     0.900000E-01   1.00800           0
       984 MEMB     9        OSM      H4G      HAL2     0.900000E-01   1.00800           0
       985 MEMB     9        OSM      C5F      CTL2    -0.180000       12.0110           0
       986 MEMB     9        OSM      H5F      HAL2     0.900000E-01   1.00800           0
       987 MEMB     9        OSM      H5G      HAL2     0.900000E-01   1.00800           0
       988 MEMB     9        OSM      C6F      CTL2    -0.180000       12.0110           0
       989 MEMB     9        OSM      H6F      HAL2     0.900000E-01   1.00800           0
       990 MEMB     9        OSM      H6G      HAL2     0.900000E-01   1.00800           0
       991 MEMB     9        OSM      C7F      CTL2    -0.180000       12.0110           0
       992 MEMB     9        OSM      H7F      HAL2     0.900000E-01   1.00800           0
       993 MEMB     9        OSM      H7G      HAL2     0.900000E-01   1.00800           0
       994 MEMB     9        OSM      C8F      CTL2    -0.180000       12.0110           0
       995 MEMB     9        OSM      H8F      HAL2     0.900000E-01   1.00800           0
       996 MEMB     9        OSM      H8G      HAL2     0.900000E-01   1.00800           0
       997 MEMB     9        OSM      C9F      CEL1    -0.150000       12.0110           0
       998 MEMB     9        OSM      H9F      HEL1     0.150000       1.00800           0
       999 MEMB     9        OSM      C10F     CEL1    -0.150000       12.0110           0
      1000 MEMB     9        OSM      H10F     HEL1     0.150000       1.00800           0
      1001 MEMB     9        OSM      C11F     CTL2    -0.180000       12.0110           0
      1002 MEMB     9        OSM      H11F     HAL2     0.900000E-01   1.00800           0
      1003 MEMB     9        OSM      H11G     HAL2     0.900000E-01   1.00800           0
      1004 MEMB     9        OSM      C12F     CTL2    -0.180000       12.0110           0
      1005 MEMB     9        OSM      H12F     HAL2     0.900000E-01   1.00800           0
      1006 MEMB     9        OSM      H12G     HAL2     0.900000E-01   1.00800           0
      1007 MEMB     9        OSM      C13F     CTL2    -0.180000       12.0110           0
      1008 MEMB     9        OSM      H13F     HAL2     0.900000E-01   1.00800           0
      1009 MEMB     9        OSM      H13G     HAL2     0.900000E-01   1.00800           0
      1010 MEMB     9        OSM      C14F     CTL2    -0.180000       12.0110           0
      1011 MEMB     9        OSM      H14F     HAL2     0.900000E-01   1.00800           0
      1012 MEMB     9        OSM      H14G     HAL2     0.900000E-01   1.00800           0
      1013 MEMB     9        OSM      C15F     CTL2    -0.180000       12.0110           0
      1014 MEMB     9        OSM      H15F     HAL2     0.900000E-01   1.00800           0
      1015 MEMB     9        OSM      H15G     HAL2     0.900000E-01   1.00800           0
      1016 MEMB     9        OSM      C16F     CTL2    -0.180000       12.0110           0
      1017 MEMB     9        OSM      H16F     HAL2     0.900000E-01   1.00800           0
      1018 MEMB     9        OSM      H16G     HAL2     0.900000E-01   1.00800           0
      1019 MEMB     9        OSM      C17F     CTL2    -0.180000       12.0110           0
      1020 MEMB     9        OSM      H17F     HAL2     0.900000E-01   1.00800           0
      1021 MEMB     9        OSM      H17G     HAL2     0.900000E-01   1.00800           0
      1022 MEMB     9        OSM      C18F     CTL3    -0.270000       12.0110           0
      1023 MEMB     9        OSM      H18F     HAL3     0.900000E-01   1.00800           0
      1024 MEMB     9        OSM      H18G     HAL3     0.900000E-01   1.00800           0
      1025 MEMB     9        OSM      H18H     HAL3     0.900000E-01   1.00800           0
      1026 MEMB     10       OSM      N        NTL     -0.600000       14.0070           0
      1027 MEMB     10       OSM      C15      CTL5    -0.350000       12.0110           0
      1028 MEMB     10       OSM      H15A     HL       0.250000       1.00800           0
      1029 MEMB     10       OSM      H15B     HL       0.250000       1.00800           0
      1030 MEMB     10       OSM      H15C     HL       0.250000       1.00800           0
      1031 MEMB     10       OSM      C14      CTL5    -0.350000       12.0110           0
      1032 MEMB     10       OSM      H14A     HL       0.250000       1.00800           0
      1033 MEMB     10       OSM      H14B     HL       0.250000       1.00800           0
      1034 MEMB     10       OSM      H14C     HL       0.250000       1.00800           0
      1035 MEMB     10       OSM      C13      CTL5    -0.350000       12.0110           0
      1036 MEMB     10       OSM      H13A     HL       0.250000       1.00800           0
      1037 MEMB     10       OSM      H13B     HL       0.250000       1.00800           0
      1038 MEMB     10       OSM      H13C     HL       0.250000       1.00800           0
      1039 MEMB     10       OSM      C12      CTL2    -0.100000       12.0110           0
      1040 MEMB     10       OSM      H12A     HL       0.250000       1.00800           0
      1041 MEMB     10       OSM      H12B     HL       0.250000       1.00800           0
      1042 MEMB     10       OSM      C11      CTL2    -0.800000E-01   12.0110           0
      1043 MEMB     10       OSM      H11A     HAL2     0.900000E-01   1.00800           0
      1044 MEMB     10       OSM      H11B     HAL2     0.900000E-01   1.00800           0
      1045 MEMB     10       OSM      P        PL        1.50000       30.9740           0
      1046 MEMB     10       OSM      O13      O2L     -0.780000       15.9994           0
      1047 MEMB     10       OSM      O14      O2L     -0.780000       15.9994           0
      1048 MEMB     10       OSM      O11      OSLP    -0.570000       15.9994           0
      1049 MEMB     10       OSM      O12      OSLP    -0.570000       15.9994           0
      1050 MEMB     10       OSM      C1S      CTL2    -0.800000E-01   12.0110           0
      1051 MEMB     10       OSM      H1S      HAL2     0.900000E-01   1.00800           0
      1052 MEMB     10       OSM      H1T      HAL2     0.900000E-01   1.00800           0
      1053 MEMB     10       OSM      NF       NHL     -0.700000       14.0070           0
      1054 MEMB     10       OSM      HNF      H        0.350000       1.00800           0
      1055 MEMB     10       OSM      C2S      CTL1     0.300000       12.0110           0
      1056 MEMB     10       OSM      H2S      HAL1     0.500000E-01   1.00800           0
      1057 MEMB     10       OSM      C3S      CTO1     0.500000       12.0110           0
      1058 MEMB     10       OSM      H3S      HAL1    -0.110000       1.00800           0
      1059 MEMB     10       OSM      O3       OHL     -0.690000       15.9994           0
      1060 MEMB     10       OSM      HO3      HOL      0.300000       1.00800           0
      1061 MEMB     10       OSM      C4S      CEL3    -0.150000       12.0110           0
      1062 MEMB     10       OSM      H4S      HEL1     0.150000       1.00800           0
      1063 MEMB     10       OSM      C5S      CEL3    -0.150000       12.0110           0
      1064 MEMB     10       OSM      H5S      HEL1     0.150000       1.00800           0
      1065 MEMB     10       OSM      C6S      CTL2    -0.180000       12.0110           0
      1066 MEMB     10       OSM      H6S      HAL2     0.900000E-01   1.00800           0
      1067 MEMB     10       OSM      H6T      HAL2     0.900000E-01   1.00800           0
      1068 MEMB     10       OSM      C7S      CTL2    -0.180000       12.0110           0
      1069 MEMB     10       OSM      H7S      HAL2     0.900000E-01   1.00800           0
      1070 MEMB     10       OSM      H7T      HAL2     0.900000E-01   1.00800           0
      1071 MEMB     10       OSM      C8S      CTL2    -0.180000       12.0110           0
      1072 MEMB     10       OSM      H8S      HAL2     0.900000E-01   1.00800           0
      1073 MEMB     10       OSM      H8T      HAL2     0.900000E-01   1.00800           0
      1074 MEMB     10       OSM      C9S      CTL2    -0.180000       12.0110           0
      1075 MEMB     10       OSM      H9S      HAL2     0.900000E-01   1.00800           0
      1076 MEMB     10       OSM      H9T      HAL2     0.900000E-01   1.00800           0
      1077 MEMB     10       OSM      C10S     CTL2    -0.180000       12.0110           0
      1078 MEMB     10       OSM      H10S     HAL2     0.900000E-01   1.00800           0
      1079 MEMB     10       OSM      H10T     HAL2     0.900000E-01   1.00800           0
      1080 MEMB     10       OSM      C11S     CTL2    -0.180000       12.0110           0
      1081 MEMB     10       OSM      H11S     HAL2     0.900000E-01   1.00800           0
      1082 MEMB     10       OSM      H11T     HAL2     0.900000E-01   1.00800           0
      1083 MEMB     10       OSM      C12S     CTL2    -0.180000       12.0110           0
      1084 MEMB     10       OSM      H12S     HAL2     0.900000E-01   1.00800           0
      1085 MEMB     10       OSM      H12T     HAL2     0.900000E-01   1.00800           0
      1086 MEMB     10       OSM      C13S     CTL2    -0.180000       12.0110           0
      1087 MEMB     10       OSM      H13S     HAL2     0.900000E-01   1.00800           0
      1088 MEMB     10       OSM      H13T     HAL2     0.900000E-01   1.00800           0
      1089 MEMB     10       OSM      C14S     CTL2    -0.180000       12.0110           0
      1090 MEMB     10       OSM      H14S     HAL2     0.900000E-01   1.00800           0
      1091 MEMB     10       OSM      H14T     HAL2     0.900000E-01   1.00800           0
      1092 MEMB     10       OSM      C15S     CTL2    -0.180000       12.0110           0
      1093 MEMB     10       OSM      H15S     HAL2     0.900000E-01   1.00800           0
      1094 MEMB     10       OSM      H15T     HAL2     0.900000E-01   1.00800           0
      1095 MEMB     10       OSM      C16S     CTL2    -0.180000       12.0110           0
      1096 MEMB     10       OSM      H16S     HAL2     0.900000E-01   1.00800           0
      1097 MEMB     10       OSM      H16T     HAL2     0.900000E-01   1.00800           0
      1098 MEMB     10       OSM      C17S     CTL2    -0.180000       12.0110           0
      1099 MEMB     10       OSM      H17S     HAL2     0.900000E-01   1.00800           0
      1100 MEMB     10       OSM      H17T     HAL2     0.900000E-01   1.00800           0
      1101 MEMB     10       OSM      C18S     CTL3    -0.270000       12.0110           0
      1102 MEMB     10       OSM      H18S     HAL3     0.900000E-01   1.00800           0
      1103 MEMB     10       OSM      H18T     HAL3     0.900000E-01   1.00800           0
      1104 MEMB     10       OSM      H18U     HAL3     0.900000E-01   1.00800           0
      1105 MEMB     10       OSM      C1F      C        0.550000       12.0110           0
      1106 MEMB     10       OSM      OF       O       -0.600000       15.9994           0
      1107 MEMB     10       OSM      C2F      CTL2    -0.700000E-01   12.0110           0
      1108 MEMB     10       OSM      H2F      HAL2     0.600000E-01   1.00800           0
      1109 MEMB     10       OSM      H2G      HAL2     0.600000E-01   1.00800           0
      1110 MEMB     10       OSM      C3F      CTL2    -0.180000       12.0110           0
      1111 MEMB     10       OSM      H3F      HAL2     0.900000E-01   1.00800           0
      1112 MEMB     10       OSM      H3G      HAL2     0.900000E-01   1.00800           0
      1113 MEMB     10       OSM      C4F      CTL2    -0.180000       12.0110           0
      1114 MEMB     10       OSM      H4F      HAL2     0.900000E-01   1.00800           0
      1115 MEMB     10       OSM      H4G      HAL2     0.900000E-01   1.00800           0
      1116 MEMB     10       OSM      C5F      CTL2    -0.180000       12.0110           0
      1117 MEMB     10       OSM      H5F      HAL2     0.900000E-01   1.00800           0
      1118 MEMB     10       OSM      H5G      HAL2     0.900000E-01   1.00800           0
      1119 MEMB     10       OSM      C6F      CTL2    -0.180000       12.0110           0
      1120 MEMB     10       OSM      H6F      HAL2     0.900000E-01   1.00800           0
      1121 MEMB     10       OSM      H6G      HAL2     0.900000E-01   1.00800           0
      1122 MEMB     10       OSM      C7F      CTL2    -0.180000       12.0110           0
      1123 MEMB     10       OSM      H7F      HAL2     0.900000E-01   1.00800           0
      1124 MEMB     10       OSM      H7G      HAL2     0.900000E-01   1.00800           0
      1125 MEMB     10       OSM      C8F      CTL2    -0.180000       12.0110           0
      1126 MEMB     10       OSM      H8F      HAL2     0.900000E-01   1.00800           0
      1127 MEMB     10       OSM      H8G      HAL2     0.900000E-01   1.00800           0
      1128 MEMB     10       OSM      C9F      CEL1    -0.150000       12.0110           0
      1129 MEMB     10       OSM      H9F      HEL1     0.150000       1.00800           0
      1130 MEMB     10       OSM      C10F     CEL1    -0.150000       12.0110           0
      1131 MEMB     10       OSM      H10F     HEL1     0.150000       1.00800           0
      1132 MEMB     10       OSM      C11F     CTL2    -0.180000       12.0110           0
      1133 MEMB     10       OSM      H11F     HAL2     0.900000E-01   1.00800           0
      1134 MEMB     10       OSM      H11G     HAL2     0.900000E-01   1.00800           0
      1135 MEMB     10       OSM      C12F     CTL2    -0.180000       12.0110           0
      1136 MEMB     10       OSM      H12F     HAL2     0.900000E-01   1.00800           0
      1137 MEMB     10       OSM      H12G     HAL2     0.900000E-01   1.00800           0
      1138 MEMB     10       OSM      C13F     CTL2    -0.180000       12.0110           0
      1139 MEMB     10       OSM      H13F     HAL2     0.900000E-01   1.00800           0
      1140 MEMB     10       OSM      H13G     HAL2     0.900000E-01   1.00800           0
      1141 MEMB     10       OSM      C14F     CTL2    -0.180000       12.0110           0
      1142 MEMB     10       OSM      H14F     HAL2     0.900000E-01   1.00800           0
      1143 MEMB     10       OSM      H14G     HAL2     0.900000E-01   1.00800           0
      1144 MEMB     10       OSM      C15F     CTL2    -0.180000       12.0110           0
      1145 MEMB     10       OSM      H15F     HAL2     0.900000E-01   1.00800           0
      1146 MEMB     10       OSM      H15G     HAL2     0.900000E-01   1.00800           0
      1147 MEMB     10       OSM      C16F     CTL2    -0.180000       12.0110           0
      1148 MEMB     10       OSM      H16F     HAL2     0.900000E-01   1.00800           0
      1149 MEMB     10       OSM      H16G     HAL2     0.900000E-01   1.00800           0
      1150 MEMB     10       OSM      C17F     CTL2    -0.180000       12.0110           0
      1151 MEMB     10       OSM      H17F     HAL2     0.900000E-01   1.00800           0
      1152 MEMB     10       OSM      H17G     HAL2     0.900000E-01   1.00800           0
      1153 MEMB     10       OSM      C18F     CTL3    -0.270000       12.0110           0
      1154 MEMB     10       OSM      H18F     HAL3     0.900000E-01   1.00800           0
      1155 MEMB     10       OSM      H18G     HAL3     0.900000E-01   1.00800           0
      1156 MEMB     10       OSM      H18H     HAL3     0.900000E-01   1.00800           0
      1157 MEMB     11       CHL1     C3       CRL1     0.140000       12.0110           0
      1158 MEMB     11       CHL1     H3       HGA1     0.900000E-01   1.00800           0
      1159 MEMB     11       CHL1     O3       OHL     -0.660000       15.9994           0
      1160 MEMB     11       CHL1     H3'      HOL      0.430000       1.00800           0
      1161 MEMB     11       CHL1     C4       CRL2    -0.180000       12.0110           0
      1162 MEMB     11       CHL1     H4A      HGA2     0.900000E-01   1.00800           0
      1163 MEMB     11       CHL1     H4B      HGA2     0.900000E-01   1.00800           0
      1164 MEMB     11       CHL1     C5       CEL1      0.00000       12.0110           0
      1165 MEMB     11       CHL1     C6       CEL1    -0.150000       12.0110           0
      1166 MEMB     11       CHL1     H6       HEL1     0.150000       1.00800           0
      1167 MEMB     11       CHL1     C7       CRL2    -0.180000       12.0110           0
      1168 MEMB     11       CHL1     H7A      HGA2     0.900000E-01   1.00800           0
      1169 MEMB     11       CHL1     H7B      HGA2     0.900000E-01   1.00800           0
      1170 MEMB     11       CHL1     C8       CRL1    -0.900000E-01   12.0110           0
      1171 MEMB     11       CHL1     H8       HGA1     0.900000E-01   1.00800           0
      1172 MEMB     11       CHL1     C14      CRL1    -0.900000E-01   12.0110           0
      1173 MEMB     11       CHL1     H14      HGA1     0.900000E-01   1.00800           0
      1174 MEMB     11       CHL1     C15      CRL2    -0.180000       12.0110           0
      1175 MEMB     11       CHL1     H15A     HGA2     0.900000E-01   1.00800           0
      1176 MEMB     11       CHL1     H15B     HGA2     0.900000E-01   1.00800           0
      1177 MEMB     11       CHL1     C16      CRL2    -0.180000       12.0110           0
      1178 MEMB     11       CHL1     H16A     HGA2     0.900000E-01   1.00800           0
      1179 MEMB     11       CHL1     H16B     HGA2     0.900000E-01   1.00800           0
      1180 MEMB     11       CHL1     C17      CRL1    -0.900000E-01   12.0110           0
      1181 MEMB     11       CHL1     H17      HGA1     0.900000E-01   1.00800           0
      1182 MEMB     11       CHL1     C13      CRL1      0.00000       12.0110           0
      1183 MEMB     11       CHL1     C18      CTL3    -0.270000       12.0110           0
      1184 MEMB     11       CHL1     H18A     HAL3     0.900000E-01   1.00800           0
      1185 MEMB     11       CHL1     H18B     HAL3     0.900000E-01   1.00800           0
      1186 MEMB     11       CHL1     H18C     HAL3     0.900000E-01   1.00800           0
      1187 MEMB     11       CHL1     C12      CRL2    -0.180000       12.0110           0
      1188 MEMB     11       CHL1     H12A     HGA2     0.900000E-01   1.00800           0
      1189 MEMB     11       CHL1     H12B     HGA2     0.900000E-01   1.00800           0
      1190 MEMB     11       CHL1     C11      CRL2    -0.180000       12.0110           0
      1191 MEMB     11       CHL1     H11A     HGA2     0.900000E-01   1.00800           0
      1192 MEMB     11       CHL1     H11B     HGA2     0.900000E-01   1.00800           0
      1193 MEMB     11       CHL1     C9       CRL1    -0.900000E-01   12.0110           0
      1194 MEMB     11       CHL1     H9       HGA1     0.900000E-01   1.00800           0
      1195 MEMB     11       CHL1     C10      CRL1      0.00000       12.0110           0
      1196 MEMB     11       CHL1     C19      CTL3    -0.270000       12.0110           0
      1197 MEMB     11       CHL1     H19A     HAL3     0.900000E-01   1.00800           0
      1198 MEMB     11       CHL1     H19B     HAL3     0.900000E-01   1.00800           0
      1199 MEMB     11       CHL1     H19C     HAL3     0.900000E-01   1.00800           0
      1200 MEMB     11       CHL1     C1       CRL2    -0.180000       12.0110           0
      1201 MEMB     11       CHL1     H1A      HGA2     0.900000E-01   1.00800           0
      1202 MEMB     11       CHL1     H1B      HGA2     0.900000E-01   1.00800           0
      1203 MEMB     11       CHL1     C2       CRL2    -0.180000       12.0110           0
      1204 MEMB     11       CHL1     H2A      HGA2     0.900000E-01   1.00800           0
      1205 MEMB     11       CHL1     H2B      HGA2     0.900000E-01   1.00800           0
      1206 MEMB     11       CHL1     C20      CTL1    -0.900000E-01   12.0110           0
      1207 MEMB     11       CHL1     H20      HAL1     0.900000E-01   1.00800           0
      1208 MEMB     11       CHL1     C21      CTL3    -0.270000       12.0110           0
      1209 MEMB     11       CHL1     H21A     HAL3     0.900000E-01   1.00800           0
      1210 MEMB     11       CHL1     H21B     HAL3     0.900000E-01   1.00800           0
      1211 MEMB     11       CHL1     H21C     HAL3     0.900000E-01   1.00800           0
      1212 MEMB     11       CHL1     C22      CTL2    -0.180000       12.0110           0
      1213 MEMB     11       CHL1     H22A     HAL2     0.900000E-01   1.00800           0
      1214 MEMB     11       CHL1     H22B     HAL2     0.900000E-01   1.00800           0
      1215 MEMB     11       CHL1     C23      CTL2    -0.180000       12.0110           0
      1216 MEMB     11       CHL1     H23A     HAL2     0.900000E-01   1.00800           0
      1217 MEMB     11       CHL1     H23B     HAL2     0.900000E-01   1.00800           0
      1218 MEMB     11       CHL1     C24      CTL2    -0.180000       12.0110           0
      1219 MEMB     11       CHL1     H24A     HAL2     0.900000E-01   1.00800           0
      1220 MEMB     11       CHL1     H24B     HAL2     0.900000E-01   1.00800           0
      1221 MEMB     11       CHL1     C25      CTL1    -0.900000E-01   12.0110           0
      1222 MEMB     11       CHL1     H25      HAL1     0.900000E-01   1.00800           0
      1223 MEMB     11       CHL1     C26      CTL3    -0.270000       12.0110           0
      1224 MEMB     11       CHL1     H26A     HAL3     0.900000E-01   1.00800           0
      1225 MEMB     11       CHL1     H26B     HAL3     0.900000E-01   1.00800           0
      1226 MEMB     11       CHL1     H26C     HAL3     0.900000E-01   1.00800           0
      1227 MEMB     11       CHL1     C27      CTL3    -0.270000       12.0110           0
      1228 MEMB     11       CHL1     H27A     HAL3     0.900000E-01   1.00800           0
      1229 MEMB     11       CHL1     H27B     HAL3     0.900000E-01   1.00800           0
      1230 MEMB     11       CHL1     H27C     HAL3     0.900000E-01   1.00800           0
      1231 MEMB     12       CHL1     C3       CRL1     0.140000       12.0110           0
      1232 MEMB     12       CHL1     H3       HGA1     0.900000E-01   1.00800           0
      1233 MEMB     12       CHL1     O3       OHL     -0.660000       15.9994           0
      1234 MEMB     12       CHL1     H3'      HOL      0.430000       1.00800           0
      1235 MEMB     12       CHL1     C4       CRL2    -0.180000       12.0110           0
      1236 MEMB     12       CHL1     H4A      HGA2     0.900000E-01   1.00800           0
      1237 MEMB     12       CHL1     H4B      HGA2     0.900000E-01   1.00800           0
      1238 MEMB     12       CHL1     C5       CEL1      0.00000       12.0110           0
      1239 MEMB     12       CHL1     C6       CEL1    -0.150000       12.0110           0
      1240 MEMB     12       CHL1     H6       HEL1     0.150000       1.00800           0
      1241 MEMB     12       CHL1     C7       CRL2    -0.180000       12.0110           0
      1242 MEMB     12       CHL1     H7A      HGA2     0.900000E-01   1.00800           0
      1243 MEMB     12       CHL1     H7B      HGA2     0.900000E-01   1.00800           0
      1244 MEMB     12       CHL1     C8       CRL1    -0.900000E-01   12.0110           0
      1245 MEMB     12       CHL1     H8       HGA1     0.900000E-01   1.00800           0
      1246 MEMB     12       CHL1     C14      CRL1    -0.900000E-01   12.0110           0
      1247 MEMB     12       CHL1     H14      HGA1     0.900000E-01   1.00800           0
      1248 MEMB     12       CHL1     C15      CRL2    -0.180000       12.0110           0
      1249 MEMB     12       CHL1     H15A     HGA2     0.900000E-01   1.00800           0
      1250 MEMB     12       CHL1     H15B     HGA2     0.900000E-01   1.00800           0
      1251 MEMB     12       CHL1     C16      CRL2    -0.180000       12.0110           0
      1252 MEMB     12       CHL1     H16A     HGA2     0.900000E-01   1.00800           0
      1253 MEMB     12       CHL1     H16B     HGA2     0.900000E-01   1.00800           0
      1254 MEMB     12       CHL1     C17      CRL1    -0.900000E-01   12.0110           0
      1255 MEMB     12       CHL1     H17      HGA1     0.900000E-01   1.00800           0
      1256 MEMB     12       CHL1     C13      CRL1      0.00000       12.0110           0
      1257 MEMB     12       CHL1     C18      CTL3    -0.270000       12.0110           0
      1258 MEMB     12       CHL1     H18A     HAL3     0.900000E-01   1.00800           0
      1259 MEMB     12       CHL1     H18B     HAL3     0.900000E-01   1.00800           0
      1260 MEMB     12       CHL1     H18C     HAL3     0.900000E-01   1.00800           0
      1261 MEMB     12       CHL1     C12      CRL2    -0.180000       12.0110           0
      1262 MEMB     12       CHL1     H12A     HGA2     0.900000E-01   1.00800           0
      1263 MEMB     12       CHL1     H12B     HGA2     0.900000E-01   1.00800           0
      1264 MEMB     12       CHL1     C11      CRL2    -0.180000       12.0110           0
      1265 MEMB     12       CHL1     H11A     HGA2     0.900000E-01   1.00800           0
      1266 MEMB     12       CHL1     H11B     HGA2     0.900000E-01   1.00800           0
      1267 MEMB     12       CHL1     C9       CRL1    -0.900000E-01   12.0110           0
      1268 MEMB     12       CHL1     H9       HGA1     0.900000E-01   1.00800           0
      1269 MEMB     12       CHL1     C10      CRL1      0.00000       12.0110           0
      1270 MEMB     12       CHL1     C19      CTL3    -0.270000       12.0110           0
      1271 MEMB     12       CHL1     H19A     HAL3     0.900000E-01   1.00800           0
      1272 MEMB     12       CHL1     H19B     HAL3     0.900000E-01   1.00800           0
      1273 MEMB     12       CHL1     H19C     HAL3     0.900000E-01   1.00800           0
      1274 MEMB     12       CHL1     C1       CRL2    -0.180000       12.0110           0
      1275 MEMB     12       CHL1     H1A      HGA2     0.900000E-01   1.00800           0
      1276 MEMB     12       CHL1     H1B      HGA2     0.900000E-01   1.00800           0
      1277 MEMB     12       CHL1     C2       CRL2    -0.180000       12.0110           0
      1278 MEMB     12       CHL1     H2A      HGA2     0.900000E-01   1.00800           0
      1279 MEMB     12       CHL1     H2B      HGA2     0.900000E-01   1.00800           0
      1280 MEMB     12       CHL1     C20      CTL1    -0.900000E-01   12.0110           0
      1281 MEMB     12       CHL1     H20      HAL1     0.900000E-01   1.00800           0
      1282 MEMB     12       CHL1     C21      CTL3    -0.270000       12.0110           0
      1283 MEMB     12       CHL1     H21A     HAL3     0.900000E-01   1.00800           0
      1284 MEMB     12       CHL1     H21B     HAL3     0.900000E-01   1.00800           0
      1285 MEMB     12       CHL1     H21C     HAL3     0.900000E-01   1.00800           0
      1286 MEMB     12       CHL1     C22      CTL2    -0.180000       12.0110           0
      1287 MEMB     12       CHL1     H22A     HAL2     0.900000E-01   1.00800           0
      1288 MEMB     12       CHL1     H22B     HAL2     0.900000E-01   1.00800           0
      1289 MEMB     12       CHL1     C23      CTL2    -0.180000       12.0110           0
      1290 MEMB     12       CHL1     H23A     HAL2     0.900000E-01   1.00800           0
      1291 MEMB     12       CHL1     H23B     HAL2     0.900000E-01   1.00800           0
      1292 MEMB     12       CHL1     C24      CTL2    -0.180000       12.0110           0
      1293 MEMB     12       CHL1     H24A     HAL2     0.900000E-01   1.00800           0
      1294 MEMB     12       CHL1     H24B     HAL2     0.900000E-01   1.00800           0
      1295 MEMB     12       CHL1     C25      CTL1    -0.900000E-01   12.0110           0
      1296 MEMB     12       CHL1     H25      HAL1     0.900000E-01   1.00800           0
      1297 MEMB     12       CHL1     C26      CTL3    -0.270000       12.0110           0
      1298 MEMB     12       CHL1     H26A     HAL3     0.900000E-01   1.00800           0
      1299 MEMB     12       CHL1     H26B     HAL3     0.900000E-01   1.00800           0
      1300 MEMB     12       CHL1     H26C     HAL3     0.900000E-01   1.00800           0
      1301 MEMB     12       CHL1     C27      CTL3    -0.270000       12.0110           0
      1302 MEMB     12       CHL1     H27A     HAL3     0.900000E-01   1.00800           0
      1303 MEMB     12       CHL1     H27B     HAL3     0.900000E-01   1.00800           0
      1304 MEMB     12       CHL1     H27C     HAL3     0.900000E-01   1.00800           0
      1305 MEMB     13       SAPC     N        NTL     -0.600000       14.0070           0
      1306 MEMB     13       SAPC     C12      CTL2    -0.100000       12.0110           0
      1307 MEMB     13       SAPC     H12A     HL       0.250000       1.00800           0
      1308 MEMB     13       SAPC     H12B     HL       0.250000       1.00800           0
      1309 MEMB     13       SAPC     C13      CTL5    -0.350000       12.0110           0
      1310 MEMB     13       SAPC     H13A     HL       0.250000       1.00800           0
      1311 MEMB     13       SAPC     H13B     HL       0.250000       1.00800           0
      1312 MEMB     13       SAPC     H13C     HL       0.250000       1.00800           0
      1313 MEMB     13       SAPC     C14      CTL5    -0.350000       12.0110           0
      1314 MEMB     13       SAPC     H14A     HL       0.250000       1.00800           0
      1315 MEMB     13       SAPC     H14B     HL       0.250000       1.00800           0
      1316 MEMB     13       SAPC     H14C     HL       0.250000       1.00800           0
      1317 MEMB     13       SAPC     C15      CTL5    -0.350000       12.0110           0
      1318 MEMB     13       SAPC     H15A     HL       0.250000       1.00800           0
      1319 MEMB     13       SAPC     H15B     HL       0.250000       1.00800           0
      1320 MEMB     13       SAPC     H15C     HL       0.250000       1.00800           0
      1321 MEMB     13       SAPC     C11      CTL2    -0.800000E-01   12.0110           0
      1322 MEMB     13       SAPC     H11A     HAL2     0.900000E-01   1.00800           0
      1323 MEMB     13       SAPC     H11B     HAL2     0.900000E-01   1.00800           0
      1324 MEMB     13       SAPC     P        PL        1.50000       30.9740           0
      1325 MEMB     13       SAPC     O13      O2L     -0.780000       15.9994           0
      1326 MEMB     13       SAPC     O14      O2L     -0.780000       15.9994           0
      1327 MEMB     13       SAPC     O12      OSLP    -0.570000       15.9994           0
      1328 MEMB     13       SAPC     O11      OSLP    -0.570000       15.9994           0
      1329 MEMB     13       SAPC     C1       CTL2    -0.800000E-01   12.0110           0
      1330 MEMB     13       SAPC     HA       HAL2     0.900000E-01   1.00800           0
      1331 MEMB     13       SAPC     HB       HAL2     0.900000E-01   1.00800           0
      1332 MEMB     13       SAPC     C2       CTL1     0.170000       12.0110           0
      1333 MEMB     13       SAPC     HS       HAL1     0.900000E-01   1.00800           0
      1334 MEMB     13       SAPC     O21      OSL     -0.490000       15.9994           0
      1335 MEMB     13       SAPC     C21      CL       0.900000       12.0110           0
      1336 MEMB     13       SAPC     O22      OBL     -0.630000       15.9994           0
      1337 MEMB     13       SAPC     C22      CTL2    -0.220000       12.0110           0
      1338 MEMB     13       SAPC     H2R      HAL2     0.900000E-01   1.00800           0
      1339 MEMB     13       SAPC     H2S      HAL2     0.900000E-01   1.00800           0
      1340 MEMB     13       SAPC     C3       CTL2     0.800000E-01   12.0110           0
      1341 MEMB     13       SAPC     HX       HAL2     0.900000E-01   1.00800           0
      1342 MEMB     13       SAPC     HY       HAL2     0.900000E-01   1.00800           0
      1343 MEMB     13       SAPC     O31      OSL     -0.490000       15.9994           0
      1344 MEMB     13       SAPC     C31      CL       0.900000       12.0110           0
      1345 MEMB     13       SAPC     O32      OBL     -0.630000       15.9994           0
      1346 MEMB     13       SAPC     C32      CTL2    -0.220000       12.0110           0
      1347 MEMB     13       SAPC     H2X      HAL2     0.900000E-01   1.00800           0
      1348 MEMB     13       SAPC     H2Y      HAL2     0.900000E-01   1.00800           0
      1349 MEMB     13       SAPC     C23      CTL2    -0.180000       12.0110           0
      1350 MEMB     13       SAPC     H3R      HAL2     0.900000E-01   1.00800           0
      1351 MEMB     13       SAPC     H3S      HAL2     0.900000E-01   1.00800           0
      1352 MEMB     13       SAPC     C24      CTL2    -0.180000       12.0110           0
      1353 MEMB     13       SAPC     H4R      HAL2     0.900000E-01   1.00800           0
      1354 MEMB     13       SAPC     H4S      HAL2     0.900000E-01   1.00800           0
      1355 MEMB     13       SAPC     C25      CEL1    -0.150000       12.0110           0
      1356 MEMB     13       SAPC     H5R      HEL1     0.150000       1.00800           0
      1357 MEMB     13       SAPC     C26      CEL1    -0.150000       12.0110           0
      1358 MEMB     13       SAPC     H6R      HEL1     0.150000       1.00800           0
      1359 MEMB     13       SAPC     C27      CTL2    -0.180000       12.0110           0
      1360 MEMB     13       SAPC     H7R      HAL2     0.900000E-01   1.00800           0
      1361 MEMB     13       SAPC     H7S      HAL2     0.900000E-01   1.00800           0
      1362 MEMB     13       SAPC     C28      CEL1    -0.150000       12.0110           0
      1363 MEMB     13       SAPC     H8R      HEL1     0.150000       1.00800           0
      1364 MEMB     13       SAPC     C29      CEL1    -0.150000       12.0110           0
      1365 MEMB     13       SAPC     H9R      HEL1     0.150000       1.00800           0
      1366 MEMB     13       SAPC     C210     CTL2    -0.180000       12.0110           0
      1367 MEMB     13       SAPC     H10R     HAL2     0.900000E-01   1.00800           0
      1368 MEMB     13       SAPC     H10S     HAL2     0.900000E-01   1.00800           0
      1369 MEMB     13       SAPC     C211     CEL1    -0.150000       12.0110           0
      1370 MEMB     13       SAPC     H11R     HEL1     0.150000       1.00800           0
      1371 MEMB     13       SAPC     C212     CEL1    -0.150000       12.0110           0
      1372 MEMB     13       SAPC     H12R     HEL1     0.150000       1.00800           0
      1373 MEMB     13       SAPC     C213     CTL2    -0.180000       12.0110           0
      1374 MEMB     13       SAPC     H13R     HAL2     0.900000E-01   1.00800           0
      1375 MEMB     13       SAPC     H13S     HAL2     0.900000E-01   1.00800           0
      1376 MEMB     13       SAPC     C214     CEL1    -0.150000       12.0110           0
      1377 MEMB     13       SAPC     H14R     HEL1     0.150000       1.00800           0
      1378 MEMB     13       SAPC     C215     CEL1    -0.150000       12.0110           0
      1379 MEMB     13       SAPC     H15R     HEL1     0.150000       1.00800           0
      1380 MEMB     13       SAPC     C216     CTL2    -0.180000       12.0110           0
      1381 MEMB     13       SAPC     H16R     HAL2     0.900000E-01   1.00800           0
      1382 MEMB     13       SAPC     H16S     HAL2     0.900000E-01   1.00800           0
      1383 MEMB     13       SAPC     C217     CTL2    -0.180000       12.0110           0
      1384 MEMB     13       SAPC     H17R     HAL2     0.900000E-01   1.00800           0
      1385 MEMB     13       SAPC     H17S     HAL2     0.900000E-01   1.00800           0
      1386 MEMB     13       SAPC     C218     CTL2    -0.270000       12.0110           0
      1387 MEMB     13       SAPC     H18R     HAL2     0.900000E-01   1.00800           0
      1388 MEMB     13       SAPC     H18S     HAL2     0.900000E-01   1.00800           0
      1389 MEMB     13       SAPC     C219     CTL2    -0.180000       12.0110           0
      1390 MEMB     13       SAPC     H19R     HAL2     0.900000E-01   1.00800           0
      1391 MEMB     13       SAPC     H19S     HAL2     0.900000E-01   1.00800           0
      1392 MEMB     13       SAPC     C220     CTL3    -0.180000       12.0110           0
      1393 MEMB     13       SAPC     H20R     HAL3     0.900000E-01   1.00800           0
      1394 MEMB     13       SAPC     H20S     HAL3     0.900000E-01   1.00800           0
      1395 MEMB     13       SAPC     H20T     HAL3     0.900000E-01   1.00800           0
      1396 MEMB     13       SAPC     C33      CTL2    -0.180000       12.0110           0
      1397 MEMB     13       SAPC     H3X      HAL2     0.900000E-01   1.00800           0
      1398 MEMB     13       SAPC     H3Y      HAL2     0.900000E-01   1.00800           0
      1399 MEMB     13       SAPC     C34      CTL2    -0.180000       12.0110           0
      1400 MEMB     13       SAPC     H4X      HAL2     0.900000E-01   1.00800           0
      1401 MEMB     13       SAPC     H4Y      HAL2     0.900000E-01   1.00800           0
      1402 MEMB     13       SAPC     C35      CTL2    -0.180000       12.0110           0
      1403 MEMB     13       SAPC     H5X      HAL2     0.900000E-01   1.00800           0
      1404 MEMB     13       SAPC     H5Y      HAL2     0.900000E-01   1.00800           0
      1405 MEMB     13       SAPC     C36      CTL2    -0.180000       12.0110           0
      1406 MEMB     13       SAPC     H6X      HAL2     0.900000E-01   1.00800           0
      1407 MEMB     13       SAPC     H6Y      HAL2     0.900000E-01   1.00800           0
      1408 MEMB     13       SAPC     C37      CTL2    -0.180000       12.0110           0
      1409 MEMB     13       SAPC     H7X      HAL2     0.900000E-01   1.00800           0
      1410 MEMB     13       SAPC     H7Y      HAL2     0.900000E-01   1.00800           0
      1411 MEMB     13       SAPC     C38      CTL2    -0.180000       12.0110           0
      1412 MEMB     13       SAPC     H8X      HAL2     0.900000E-01   1.00800           0
      1413 MEMB     13       SAPC     H8Y      HAL2     0.900000E-01   1.00800           0
      1414 MEMB     13       SAPC     C39      CTL2    -0.180000       12.0110           0
      1415 MEMB     13       SAPC     H9X      HAL2     0.900000E-01   1.00800           0
      1416 MEMB     13       SAPC     H9Y      HAL2     0.900000E-01   1.00800           0
      1417 MEMB     13       SAPC     C310     CTL2    -0.180000       12.0110           0
      1418 MEMB     13       SAPC     H10X     HAL2     0.900000E-01   1.00800           0
      1419 MEMB     13       SAPC     H10Y     HAL2     0.900000E-01   1.00800           0
      1420 MEMB     13       SAPC     C311     CTL2    -0.180000       12.0110           0
      1421 MEMB     13       SAPC     H11X     HAL2     0.900000E-01   1.00800           0
      1422 MEMB     13       SAPC     H11Y     HAL2     0.900000E-01   1.00800           0
      1423 MEMB     13       SAPC     C312     CTL2    -0.180000       12.0110           0
      1424 MEMB     13       SAPC     H12X     HAL2     0.900000E-01   1.00800           0
      1425 MEMB     13       SAPC     H12Y     HAL2     0.900000E-01   1.00800           0
      1426 MEMB     13       SAPC     C313     CTL2    -0.180000       12.0110           0
      1427 MEMB     13       SAPC     H13X     HAL2     0.900000E-01   1.00800           0
      1428 MEMB     13       SAPC     H13Y     HAL2     0.900000E-01   1.00800           0
      1429 MEMB     13       SAPC     C314     CTL2    -0.180000       12.0110           0
      1430 MEMB     13       SAPC     H14X     HAL2     0.900000E-01   1.00800           0
      1431 MEMB     13       SAPC     H14Y     HAL2     0.900000E-01   1.00800           0
      1432 MEMB     13       SAPC     C315     CTL2    -0.180000       12.0110           0
      1433 MEMB     13       SAPC     H15X     HAL2     0.900000E-01   1.00800           0
      1434 MEMB     13       SAPC     H15Y     HAL2     0.900000E-01   1.00800           0
      1435 MEMB     13       SAPC     C316     CTL2    -0.180000       12.0110           0
      1436 MEMB     13       SAPC     H16X     HAL2     0.900000E-01   1.00800           0
      1437 MEMB     13       SAPC     H16Y     HAL2     0.900000E-01   1.00800           0
      1438 MEMB     13       SAPC     C317     CTL2    -0.180000       12.0110           0
      1439 MEMB     13       SAPC     H17X     HAL2     0.900000E-01   1.00800           0
      1440 MEMB     13       SAPC     H17Y     HAL2     0.900000E-01   1.00800           0
      1441 MEMB     13       SAPC     C318     CTL3    -0.270000       12.0110           0
      1442 MEMB     13       SAPC     H18X     HAL3     0.900000E-01   1.00800           0
      1443 MEMB     13       SAPC     H18Y     HAL3     0.900000E-01   1.00800           0
      1444 MEMB     13       SAPC     H18Z     HAL3     0.900000E-01   1.00800           0
      1445 MEMB     14       SLPC     N        NTL     -0.600000       14.0070           0
      1446 MEMB     14       SLPC     C13      CTL5    -0.350000       12.0110           0
      1447 MEMB     14       SLPC     H13A     HL       0.250000       1.00800           0
      1448 MEMB     14       SLPC     H13B     HL       0.250000       1.00800           0
      1449 MEMB     14       SLPC     H13C     HL       0.250000       1.00800           0
      1450 MEMB     14       SLPC     C14      CTL5    -0.350000       12.0110           0
      1451 MEMB     14       SLPC     H14A     HL       0.250000       1.00800           0
      1452 MEMB     14       SLPC     H14B     HL       0.250000       1.00800           0
      1453 MEMB     14       SLPC     H14C     HL       0.250000       1.00800           0
      1454 MEMB     14       SLPC     C15      CTL5    -0.350000       12.0110           0
      1455 MEMB     14       SLPC     H15A     HL       0.250000       1.00800           0
      1456 MEMB     14       SLPC     H15B     HL       0.250000       1.00800           0
      1457 MEMB     14       SLPC     H15C     HL       0.250000       1.00800           0
      1458 MEMB     14       SLPC     C12      CTL2    -0.100000       12.0110           0
      1459 MEMB     14       SLPC     H12A     HL       0.250000       1.00800           0
      1460 MEMB     14       SLPC     H12B     HL       0.250000       1.00800           0
      1461 MEMB     14       SLPC     C11      CTL2    -0.800000E-01   12.0110           0
      1462 MEMB     14       SLPC     H11A     HAL2     0.900000E-01   1.00800           0
      1463 MEMB     14       SLPC     H11B     HAL2     0.900000E-01   1.00800           0
      1464 MEMB     14       SLPC     P        PL        1.50000       30.9740           0
      1465 MEMB     14       SLPC     O13      O2L     -0.780000       15.9994           0
      1466 MEMB     14       SLPC     O14      O2L     -0.780000       15.9994           0
      1467 MEMB     14       SLPC     O12      OSLP    -0.570000       15.9994           0
      1468 MEMB     14       SLPC     O11      OSLP    -0.570000       15.9994           0
      1469 MEMB     14       SLPC     C1       CTL2    -0.800000E-01   12.0110           0
      1470 MEMB     14       SLPC     HA       HAL2     0.900000E-01   1.00800           0
      1471 MEMB     14       SLPC     HB       HAL2     0.900000E-01   1.00800           0
      1472 MEMB     14       SLPC     C2       CTL1     0.170000       12.0110           0
      1473 MEMB     14       SLPC     HS       HAL1     0.900000E-01   1.00800           0
      1474 MEMB     14       SLPC     O21      OSL     -0.490000       15.9994           0
      1475 MEMB     14       SLPC     C21      CL       0.900000       12.0110           0
      1476 MEMB     14       SLPC     O22      OBL     -0.630000       15.9994           0
      1477 MEMB     14       SLPC     C22      CTL2    -0.220000       12.0110           0
      1478 MEMB     14       SLPC     H2R      HAL2     0.900000E-01   1.00800           0
      1479 MEMB     14       SLPC     H2S      HAL2     0.900000E-01   1.00800           0
      1480 MEMB     14       SLPC     C3       CTL2     0.800000E-01   12.0110           0
      1481 MEMB     14       SLPC     HX       HAL2     0.900000E-01   1.00800           0
      1482 MEMB     14       SLPC     HY       HAL2     0.900000E-01   1.00800           0
      1483 MEMB     14       SLPC     O31      OSL     -0.490000       15.9994           0
      1484 MEMB     14       SLPC     C31      CL       0.900000       12.0110           0
      1485 MEMB     14       SLPC     O32      OBL     -0.630000       15.9994           0
      1486 MEMB     14       SLPC     C32      CTL2    -0.220000       12.0110           0
      1487 MEMB     14       SLPC     H2X      HAL2     0.900000E-01   1.00800           0
      1488 MEMB     14       SLPC     H2Y      HAL2     0.900000E-01   1.00800           0
      1489 MEMB     14       SLPC     C23      CTL2    -0.180000       12.0110           0
      1490 MEMB     14       SLPC     H3R      HAL2     0.900000E-01   1.00800           0
      1491 MEMB     14       SLPC     H3S      HAL2     0.900000E-01   1.00800           0
      1492 MEMB     14       SLPC     C24      CTL2    -0.180000       12.0110           0
      1493 MEMB     14       SLPC     H4R      HAL2     0.900000E-01   1.00800           0
      1494 MEMB     14       SLPC     H4S      HAL2     0.900000E-01   1.00800           0
      1495 MEMB     14       SLPC     C25      CTL2    -0.180000       12.0110           0
      1496 MEMB     14       SLPC     H5R      HAL2     0.900000E-01   1.00800           0
      1497 MEMB     14       SLPC     H5S      HAL2     0.900000E-01   1.00800           0
      1498 MEMB     14       SLPC     C26      CTL2    -0.180000       12.0110           0
      1499 MEMB     14       SLPC     H6R      HAL2     0.900000E-01   1.00800           0
      1500 MEMB     14       SLPC     H6S      HAL2     0.900000E-01   1.00800           0
      1501 MEMB     14       SLPC     C27      CTL2    -0.180000       12.0110           0
      1502 MEMB     14       SLPC     H7R      HAL2     0.900000E-01   1.00800           0
      1503 MEMB     14       SLPC     H7S      HAL2     0.900000E-01   1.00800           0
      1504 MEMB     14       SLPC     C28      CTL2    -0.180000       12.0110           0
      1505 MEMB     14       SLPC     H8R      HAL2     0.900000E-01   1.00800           0
      1506 MEMB     14       SLPC     H8S      HAL2     0.900000E-01   1.00800           0
      1507 MEMB     14       SLPC     C29      CEL1    -0.150000       12.0110           0
      1508 MEMB     14       SLPC     H9R      HEL1     0.150000       1.00800           0
      1509 MEMB     14       SLPC     C210     CEL1    -0.150000       12.0110           0
      1510 MEMB     14       SLPC     H10R     HEL1     0.150000       1.00800           0
      1511 MEMB     14       SLPC     C211     CTL2    -0.180000       12.0110           0
      1512 MEMB     14       SLPC     H11R     HAL2     0.900000E-01   1.00800           0
      1513 MEMB     14       SLPC     H11S     HAL2     0.900000E-01   1.00800           0
      1514 MEMB     14       SLPC     C212     CEL1    -0.150000       12.0110           0
      1515 MEMB     14       SLPC     H12R     HEL1     0.150000       1.00800           0
      1516 MEMB     14       SLPC     C213     CEL1    -0.150000       12.0110           0
      1517 MEMB     14       SLPC     H13R     HEL1     0.150000       1.00800           0
      1518 MEMB     14       SLPC     C214     CTL2    -0.180000       12.0110           0
      1519 MEMB     14       SLPC     H14R     HAL2     0.900000E-01   1.00800           0
      1520 MEMB     14       SLPC     H14S     HAL2     0.900000E-01   1.00800           0
      1521 MEMB     14       SLPC     C215     CTL2    -0.180000       12.0110           0
      1522 MEMB     14       SLPC     H15R     HAL2     0.900000E-01   1.00800           0
      1523 MEMB     14       SLPC     H15S     HAL2     0.900000E-01   1.00800           0
      1524 MEMB     14       SLPC     C216     CTL2    -0.180000       12.0110           0
      1525 MEMB     14       SLPC     H16R     HAL2     0.900000E-01   1.00800           0
      1526 MEMB     14       SLPC     H16S     HAL2     0.900000E-01   1.00800           0
      1527 MEMB     14       SLPC     C217     CTL2    -0.180000       12.0110           0
      1528 MEMB     14       SLPC     H17R     HAL2     0.900000E-01   1.00800           0
      1529 MEMB     14       SLPC     H17S     HAL2     0.900000E-01   1.00800           0
      1530 MEMB     14       SLPC     C218     CTL3    -0.270000       12.0110           0
      1531 MEMB     14       SLPC     H18R     HAL3     0.900000E-01   1.00800           0
      1532 MEMB     14       SLPC     H18S     HAL3     0.900000E-01   1.00800           0
      1533 MEMB     14       SLPC     H18T     HAL3     0.900000E-01   1.00800           0
      1534 MEMB     14       SLPC     C33      CTL2    -0.180000       12.0110           0
      1535 MEMB     14       SLPC     H3X      HAL2     0.900000E-01   1.00800           0
      1536 MEMB     14       SLPC     H3Y      HAL2     0.900000E-01   1.00800           0
      1537 MEMB     14       SLPC     C34      CTL2    -0.180000       12.0110           0
      1538 MEMB     14       SLPC     H4X      HAL2     0.900000E-01   1.00800           0
      1539 MEMB     14       SLPC     H4Y      HAL2     0.900000E-01   1.00800           0
      1540 MEMB     14       SLPC     C35      CTL2    -0.180000       12.0110           0
      1541 MEMB     14       SLPC     H5X      HAL2     0.900000E-01   1.00800           0
      1542 MEMB     14       SLPC     H5Y      HAL2     0.900000E-01   1.00800           0
      1543 MEMB     14       SLPC     C36      CTL2    -0.180000       12.0110           0
      1544 MEMB     14       SLPC     H6X      HAL2     0.900000E-01   1.00800           0
      1545 MEMB     14       SLPC     H6Y      HAL2     0.900000E-01   1.00800           0
      1546 MEMB     14       SLPC     C37      CTL2    -0.180000       12.0110           0
      1547 MEMB     14       SLPC     H7X      HAL2     0.900000E-01   1.00800           0
      1548 MEMB     14       SLPC     H7Y      HAL2     0.900000E-01   1.00800           0
      1549 MEMB     14       SLPC     C38      CTL2    -0.180000       12.0110           0
      1550 MEMB     14       SLPC     H8X      HAL2     0.900000E-01   1.00800           0
      1551 MEMB     14       SLPC     H8Y      HAL2     0.900000E-01   1.00800           0
      1552 MEMB     14       SLPC     C39      CTL2    -0.180000       12.0110           0
      1553 MEMB     14       SLPC     H9X      HAL2     0.900000E-01   1.00800           0
      1554 MEMB     14       SLPC     H9Y      HAL2     0.900000E-01   1.00800           0
      1555 MEMB     14       SLPC     C310     CTL2    -0.180000       12.0110           0
      1556 MEMB     14       SLPC     H10X     HAL2     0.900000E-01   1.00800           0
      1557 MEMB     14       SLPC     H10Y     HAL2     0.900000E-01   1.00800           0
      1558 MEMB     14       SLPC     C311     CTL2    -0.180000       12.0110           0
      1559 MEMB     14       SLPC     H11X     HAL2     0.900000E-01   1.00800           0
      1560 MEMB     14       SLPC     H11Y     HAL2     0.900000E-01   1.00800           0
      1561 MEMB     14       SLPC     C312     CTL2    -0.180000       12.0110           0
      1562 MEMB     14       SLPC     H12X     HAL2     0.900000E-01   1.00800           0
      1563 MEMB     14       SLPC     H12Y     HAL2     0.900000E-01   1.00800           0
      1564 MEMB     14       SLPC     C313     CTL2    -0.180000       12.0110           0
      1565 MEMB     14       SLPC     H13X     HAL2     0.900000E-01   1.00800           0
      1566 MEMB     14       SLPC     H13Y     HAL2     0.900000E-01   1.00800           0
      1567 MEMB     14       SLPC     C314     CTL2    -0.180000       12.0110           0
      1568 MEMB     14       SLPC     H14X     HAL2     0.900000E-01   1.00800           0
      1569 MEMB     14       SLPC     H14Y     HAL2     0.900000E-01   1.00800           0
      1570 MEMB     14       SLPC     C315     CTL2    -0.180000       12.0110           0
      1571 MEMB     14       SLPC     H15X     HAL2     0.900000E-01   1.00800           0
      1572 MEMB     14       SLPC     H15Y     HAL2     0.900000E-01   1.00800           0
      1573 MEMB     14       SLPC     C316     CTL2    -0.180000       12.0110           0
      1574 MEMB     14       SLPC     H16X     HAL2     0.900000E-01   1.00800           0
      1575 MEMB     14       SLPC     H16Y     HAL2     0.900000E-01   1.00800           0
      1576 MEMB     14       SLPC     C317     CTL2    -0.180000       12.0110           0
      1577 MEMB     14       SLPC     H17X     HAL2     0.900000E-01   1.00800           0
      1578 MEMB     14       SLPC     H17Y     HAL2     0.900000E-01   1.00800           0
      1579 MEMB     14       SLPC     C318     CTL3    -0.270000       12.0110           0
      1580 MEMB     14       SLPC     H18X     HAL3     0.900000E-01   1.00800           0
      1581 MEMB     14       SLPC     H18Y     HAL3     0.900000E-01   1.00800           0
      1582 MEMB     14       SLPC     H18Z     HAL3     0.900000E-01   1.00800           0
      1583 MEMB     15       POPC     N        NTL     -0.600000       14.0070           0
      1584 MEMB     15       POPC     C12      CTL2    -0.100000       12.0110           0
      1585 MEMB     15       POPC     H12A     HL       0.250000       1.00800           0
      1586 MEMB     15       POPC     H12B     HL       0.250000       1.00800           0
      1587 MEMB     15       POPC     C13      CTL5    -0.350000       12.0110           0
      1588 MEMB     15       POPC     H13A     HL       0.250000       1.00800           0
      1589 MEMB     15       POPC     H13B     HL       0.250000       1.00800           0
      1590 MEMB     15       POPC     H13C     HL       0.250000       1.00800           0
      1591 MEMB     15       POPC     C14      CTL5    -0.350000       12.0110           0
      1592 MEMB     15       POPC     H14A     HL       0.250000       1.00800           0
      1593 MEMB     15       POPC     H14B     HL       0.250000       1.00800           0
      1594 MEMB     15       POPC     H14C     HL       0.250000       1.00800           0
      1595 MEMB     15       POPC     C15      CTL5    -0.350000       12.0110           0
      1596 MEMB     15       POPC     H15A     HL       0.250000       1.00800           0
      1597 MEMB     15       POPC     H15B     HL       0.250000       1.00800           0
      1598 MEMB     15       POPC     H15C     HL       0.250000       1.00800           0
      1599 MEMB     15       POPC     C11      CTL2    -0.800000E-01   12.0110           0
      1600 MEMB     15       POPC     H11A     HAL2     0.900000E-01   1.00800           0
      1601 MEMB     15       POPC     H11B     HAL2     0.900000E-01   1.00800           0
      1602 MEMB     15       POPC     P        PL        1.50000       30.9740           0
      1603 MEMB     15       POPC     O13      O2L     -0.780000       15.9994           0
      1604 MEMB     15       POPC     O14      O2L     -0.780000       15.9994           0
      1605 MEMB     15       POPC     O12      OSLP    -0.570000       15.9994           0
      1606 MEMB     15       POPC     O11      OSLP    -0.570000       15.9994           0
      1607 MEMB     15       POPC     C1       CTL2    -0.800000E-01   12.0110           0
      1608 MEMB     15       POPC     HA       HAL2     0.900000E-01   1.00800           0
      1609 MEMB     15       POPC     HB       HAL2     0.900000E-01   1.00800           0
      1610 MEMB     15       POPC     C2       CTL1     0.170000       12.0110           0
      1611 MEMB     15       POPC     HS       HAL1     0.900000E-01   1.00800           0
      1612 MEMB     15       POPC     O21      OSL     -0.490000       15.9994           0
      1613 MEMB     15       POPC     C21      CL       0.900000       12.0110           0
      1614 MEMB     15       POPC     O22      OBL     -0.630000       15.9994           0
      1615 MEMB     15       POPC     C22      CTL2    -0.220000       12.0110           0
      1616 MEMB     15       POPC     H2R      HAL2     0.900000E-01   1.00800           0
      1617 MEMB     15       POPC     H2S      HAL2     0.900000E-01   1.00800           0
      1618 MEMB     15       POPC     C3       CTL2     0.800000E-01   12.0110           0
      1619 MEMB     15       POPC     HX       HAL2     0.900000E-01   1.00800           0
      1620 MEMB     15       POPC     HY       HAL2     0.900000E-01   1.00800           0
      1621 MEMB     15       POPC     O31      OSL     -0.490000       15.9994           0
      1622 MEMB     15       POPC     C31      CL       0.900000       12.0110           0
      1623 MEMB     15       POPC     O32      OBL     -0.630000       15.9994           0
      1624 MEMB     15       POPC     C32      CTL2    -0.220000       12.0110           0
      1625 MEMB     15       POPC     H2X      HAL2     0.900000E-01   1.00800           0
      1626 MEMB     15       POPC     H2Y      HAL2     0.900000E-01   1.00800           0
      1627 MEMB     15       POPC     C23      CTL2    -0.180000       12.0110           0
      1628 MEMB     15       POPC     H3R      HAL2     0.900000E-01   1.00800           0
      1629 MEMB     15       POPC     H3S      HAL2     0.900000E-01   1.00800           0
      1630 MEMB     15       POPC     C24      CTL2    -0.180000       12.0110           0
      1631 MEMB     15       POPC     H4R      HAL2     0.900000E-01   1.00800           0
      1632 MEMB     15       POPC     H4S      HAL2     0.900000E-01   1.00800           0
      1633 MEMB     15       POPC     C25      CTL2    -0.180000       12.0110           0
      1634 MEMB     15       POPC     H5R      HAL2     0.900000E-01   1.00800           0
      1635 MEMB     15       POPC     H5S      HAL2     0.900000E-01   1.00800           0
      1636 MEMB     15       POPC     C26      CTL2    -0.180000       12.0110           0
      1637 MEMB     15       POPC     H6R      HAL2     0.900000E-01   1.00800           0
      1638 MEMB     15       POPC     H6S      HAL2     0.900000E-01   1.00800           0
      1639 MEMB     15       POPC     C27      CTL2    -0.180000       12.0110           0
      1640 MEMB     15       POPC     H7R      HAL2     0.900000E-01   1.00800           0
      1641 MEMB     15       POPC     H7S      HAL2     0.900000E-01   1.00800           0
      1642 MEMB     15       POPC     C28      CTL2    -0.180000       12.0110           0
      1643 MEMB     15       POPC     H8R      HAL2     0.900000E-01   1.00800           0
      1644 MEMB     15       POPC     H8S      HAL2     0.900000E-01   1.00800           0
      1645 MEMB     15       POPC     C29      CEL1    -0.150000       12.0110           0
      1646 MEMB     15       POPC     H91      HEL1     0.150000       1.00800           0
      1647 MEMB     15       POPC     C210     CEL1    -0.150000       12.0110           0
      1648 MEMB     15       POPC     H101     HEL1     0.150000       1.00800           0
      1649 MEMB     15       POPC     C211     CTL2    -0.180000       12.0110           0
      1650 MEMB     15       POPC     H11R     HAL2     0.900000E-01   1.00800           0
      1651 MEMB     15       POPC     H11S     HAL2     0.900000E-01   1.00800           0
      1652 MEMB     15       POPC     C212     CTL2    -0.180000       12.0110           0
      1653 MEMB     15       POPC     H12R     HAL2     0.900000E-01   1.00800           0
      1654 MEMB     15       POPC     H12S     HAL2     0.900000E-01   1.00800           0
      1655 MEMB     15       POPC     C213     CTL2    -0.180000       12.0110           0
      1656 MEMB     15       POPC     H13R     HAL2     0.900000E-01   1.00800           0
      1657 MEMB     15       POPC     H13S     HAL2     0.900000E-01   1.00800           0
      1658 MEMB     15       POPC     C214     CTL2    -0.180000       12.0110           0
      1659 MEMB     15       POPC     H14R     HAL2     0.900000E-01   1.00800           0
      1660 MEMB     15       POPC     H14S     HAL2     0.900000E-01   1.00800           0
      1661 MEMB     15       POPC     C215     CTL2    -0.180000       12.0110           0
      1662 MEMB     15       POPC     H15R     HAL2     0.900000E-01   1.00800           0
      1663 MEMB     15       POPC     H15S     HAL2     0.900000E-01   1.00800           0
      1664 MEMB     15       POPC     C216     CTL2    -0.180000       12.0110           0
      1665 MEMB     15       POPC     H16R     HAL2     0.900000E-01   1.00800           0
      1666 MEMB     15       POPC     H16S     HAL2     0.900000E-01   1.00800           0
      1667 MEMB     15       POPC     C217     CTL2    -0.180000       12.0110           0
      1668 MEMB     15       POPC     H17R     HAL2     0.900000E-01   1.00800           0
      1669 MEMB     15       POPC     H17S     HAL2     0.900000E-01   1.00800           0
      1670 MEMB     15       POPC     C218     CTL3    -0.270000       12.0110           0
      1671 MEMB     15       POPC     H18R     HAL3     0.900000E-01   1.00800           0
      1672 MEMB     15       POPC     H18S     HAL3     0.900000E-01   1.00800           0
      1673 MEMB     15       POPC     H18T     HAL3     0.900000E-01   1.00800           0
      1674 MEMB     15       POPC     C33      CTL2    -0.180000       12.0110           0
      1675 MEMB     15       POPC     H3X      HAL2     0.900000E-01   1.00800           0
      1676 MEMB     15       POPC     H3Y      HAL2     0.900000E-01   1.00800           0
      1677 MEMB     15       POPC     C34      CTL2    -0.180000       12.0110           0
      1678 MEMB     15       POPC     H4X      HAL2     0.900000E-01   1.00800           0
      1679 MEMB     15       POPC     H4Y      HAL2     0.900000E-01   1.00800           0
      1680 MEMB     15       POPC     C35      CTL2    -0.180000       12.0110           0
      1681 MEMB     15       POPC     H5X      HAL2     0.900000E-01   1.00800           0
      1682 MEMB     15       POPC     H5Y      HAL2     0.900000E-01   1.00800           0
      1683 MEMB     15       POPC     C36      CTL2    -0.180000       12.0110           0
      1684 MEMB     15       POPC     H6X      HAL2     0.900000E-01   1.00800           0
      1685 MEMB     15       POPC     H6Y      HAL2     0.900000E-01   1.00800           0
      1686 MEMB     15       POPC     C37      CTL2    -0.180000       12.0110           0
      1687 MEMB     15       POPC     H7X      HAL2     0.900000E-01   1.00800           0
      1688 MEMB     15       POPC     H7Y      HAL2     0.900000E-01   1.00800           0
      1689 MEMB     15       POPC     C38      CTL2    -0.180000       12.0110           0
      1690 MEMB     15       POPC     H8X      HAL2     0.900000E-01   1.00800           0
      1691 MEMB     15       POPC     H8Y      HAL2     0.900000E-01   1.00800           0
      1692 MEMB     15       POPC     C39      CTL2    -0.180000       12.0110           0
      1693 MEMB     15       POPC     H9X      HAL2     0.900000E-01   1.00800           0
      1694 MEMB     15       POPC     H9Y      HAL2     0.900000E-01   1.00800           0
      1695 MEMB     15       POPC     C310     CTL2    -0.180000       12.0110           0
      1696 MEMB     15       POPC     H10X     HAL2     0.900000E-01   1.00800           0
      1697 MEMB     15       POPC     H10Y     HAL2     0.900000E-01   1.00800           0
      1698 MEMB     15       POPC     C311     CTL2    -0.180000       12.0110           0
      1699 MEMB     15       POPC     H11X     HAL2     0.900000E-01   1.00800           0
      1700 MEMB     15       POPC     H11Y     HAL2     0.900000E-01   1.00800           0
      1701 MEMB     15       POPC     C312     CTL2    -0.180000       12.0110           0
      1702 MEMB     15       POPC     H12X     HAL2     0.900000E-01   1.00800           0
      1703 MEMB     15       POPC     H12Y     HAL2     0.900000E-01   1.00800           0
      1704 MEMB     15       POPC     C313     CTL2    -0.180000       12.0110           0
      1705 MEMB     15       POPC     H13X     HAL2     0.900000E-01   1.00800           0
      1706 MEMB     15       POPC     H13Y     HAL2     0.900000E-01   1.00800           0
      1707 MEMB     15       POPC     C314     CTL2    -0.180000       12.0110           0
      1708 MEMB     15       POPC     H14X     HAL2     0.900000E-01   1.00800           0
      1709 MEMB     15       POPC     H14Y     HAL2     0.900000E-01   1.00800           0
      1710 MEMB     15       POPC     C315     CTL2    -0.180000       12.0110           0
      1711 MEMB     15       POPC     H15X     HAL2     0.900000E-01   1.00800           0
      1712 MEMB     15       POPC     H15Y     HAL2     0.900000E-01   1.00800           0
      1713 MEMB     15       POPC     C316     CTL3    -0.270000       12.0110           0
      1714 MEMB     15       POPC     H16X     HAL3     0.900000E-01   1.00800           0
      1715 MEMB     15       POPC     H16Y     HAL3     0.900000E-01   1.00800           0
      1716 MEMB     15       POPC     H16Z     HAL3     0.900000E-01   1.00800           0
      1717 MEMB     16       SOPE     N        NH3L    -0.300000       14.0070           0
      1718 MEMB     16       SOPE     HN1      HCL      0.330000       1.00800           0
      1719 MEMB     16       SOPE     HN2      HCL      0.330000       1.00800           0
      1720 MEMB     16       SOPE     HN3      HCL      0.330000       1.00800           0
      1721 MEMB     16       SOPE     C12      CTL2     0.130000       12.0110           0
      1722 MEMB     16       SOPE     H12A     HAL2     0.900000E-01   1.00800           0
      1723 MEMB     16       SOPE     H12B     HAL2     0.900000E-01   1.00800           0
      1724 MEMB     16       SOPE     C11      CTL2    -0.800000E-01   12.0110           0
      1725 MEMB     16       SOPE     H11A     HAL2     0.900000E-01   1.00800           0
      1726 MEMB     16       SOPE     H11B     HAL2     0.900000E-01   1.00800           0
      1727 MEMB     16       SOPE     P        PL        1.50000       30.9740           0
      1728 MEMB     16       SOPE     O13      O2L     -0.780000       15.9994           0
      1729 MEMB     16       SOPE     O14      O2L     -0.780000       15.9994           0
      1730 MEMB     16       SOPE     O12      OSLP    -0.570000       15.9994           0
      1731 MEMB     16       SOPE     O11      OSLP    -0.570000       15.9994           0
      1732 MEMB     16       SOPE     C1       CTL2    -0.800000E-01   12.0110           0
      1733 MEMB     16       SOPE     HA       HAL2     0.900000E-01   1.00800           0
      1734 MEMB     16       SOPE     HB       HAL2     0.900000E-01   1.00800           0
      1735 MEMB     16       SOPE     C2       CTL1     0.170000       12.0110           0
      1736 MEMB     16       SOPE     HS       HAL1     0.900000E-01   1.00800           0
      1737 MEMB     16       SOPE     O21      OSL     -0.490000       15.9994           0
      1738 MEMB     16       SOPE     C21      CL       0.900000       12.0110           0
      1739 MEMB     16       SOPE     O22      OBL     -0.630000       15.9994           0
      1740 MEMB     16       SOPE     C22      CTL2    -0.220000       12.0110           0
      1741 MEMB     16       SOPE     H2R      HAL2     0.900000E-01   1.00800           0
      1742 MEMB     16       SOPE     H2S      HAL2     0.900000E-01   1.00800           0
      1743 MEMB     16       SOPE     C3       CTL2     0.800000E-01   12.0110           0
      1744 MEMB     16       SOPE     HX       HAL2     0.900000E-01   1.00800           0
      1745 MEMB     16       SOPE     HY       HAL2     0.900000E-01   1.00800           0
      1746 MEMB     16       SOPE     O31      OSL     -0.490000       15.9994           0
      1747 MEMB     16       SOPE     C31      CL       0.900000       12.0110           0
      1748 MEMB     16       SOPE     O32      OBL     -0.630000       15.9994           0
      1749 MEMB     16       SOPE     C32      CTL2    -0.220000       12.0110           0
      1750 MEMB     16       SOPE     H2X      HAL2     0.900000E-01   1.00800           0
      1751 MEMB     16       SOPE     H2Y      HAL2     0.900000E-01   1.00800           0
      1752 MEMB     16       SOPE     C23      CTL2    -0.180000       12.0110           0
      1753 MEMB     16       SOPE     H3R      HAL2     0.900000E-01   1.00800           0
      1754 MEMB     16       SOPE     H3S      HAL2     0.900000E-01   1.00800           0
      1755 MEMB     16       SOPE     C24      CTL2    -0.180000       12.0110           0
      1756 MEMB     16       SOPE     H4R      HAL2     0.900000E-01   1.00800           0
      1757 MEMB     16       SOPE     H4S      HAL2     0.900000E-01   1.00800           0
      1758 MEMB     16       SOPE     C25      CTL2    -0.180000       12.0110           0
      1759 MEMB     16       SOPE     H5R      HAL2     0.900000E-01   1.00800           0
      1760 MEMB     16       SOPE     H5S      HAL2     0.900000E-01   1.00800           0
      1761 MEMB     16       SOPE     C26      CTL2    -0.180000       12.0110           0
      1762 MEMB     16       SOPE     H6R      HAL2     0.900000E-01   1.00800           0
      1763 MEMB     16       SOPE     H6S      HAL2     0.900000E-01   1.00800           0
      1764 MEMB     16       SOPE     C27      CTL2    -0.180000       12.0110           0
      1765 MEMB     16       SOPE     H7R      HAL2     0.900000E-01   1.00800           0
      1766 MEMB     16       SOPE     H7S      HAL2     0.900000E-01   1.00800           0
      1767 MEMB     16       SOPE     C28      CTL2    -0.180000       12.0110           0
      1768 MEMB     16       SOPE     H8R      HAL2     0.900000E-01   1.00800           0
      1769 MEMB     16       SOPE     H8S      HAL2     0.900000E-01   1.00800           0
      1770 MEMB     16       SOPE     C29      CEL1    -0.150000       12.0110           0
      1771 MEMB     16       SOPE     H91      HEL1     0.150000       1.00800           0
      1772 MEMB     16       SOPE     C210     CEL1    -0.150000       12.0110           0
      1773 MEMB     16       SOPE     H101     HEL1     0.150000       1.00800           0
      1774 MEMB     16       SOPE     C211     CTL2    -0.180000       12.0110           0
      1775 MEMB     16       SOPE     H11R     HAL2     0.900000E-01   1.00800           0
      1776 MEMB     16       SOPE     H11S     HAL2     0.900000E-01   1.00800           0
      1777 MEMB     16       SOPE     C212     CTL2    -0.180000       12.0110           0
      1778 MEMB     16       SOPE     H12R     HAL2     0.900000E-01   1.00800           0
      1779 MEMB     16       SOPE     H12S     HAL2     0.900000E-01   1.00800           0
      1780 MEMB     16       SOPE     C213     CTL2    -0.180000       12.0110           0
      1781 MEMB     16       SOPE     H13R     HAL2     0.900000E-01   1.00800           0
      1782 MEMB     16       SOPE     H13S     HAL2     0.900000E-01   1.00800           0
      1783 MEMB     16       SOPE     C214     CTL2    -0.180000       12.0110           0
      1784 MEMB     16       SOPE     H14R     HAL2     0.900000E-01   1.00800           0
      1785 MEMB     16       SOPE     H14S     HAL2     0.900000E-01   1.00800           0
      1786 MEMB     16       SOPE     C215     CTL2    -0.180000       12.0110           0
      1787 MEMB     16       SOPE     H15R     HAL2     0.900000E-01   1.00800           0
      1788 MEMB     16       SOPE     H15S     HAL2     0.900000E-01   1.00800           0
      1789 MEMB     16       SOPE     C216     CTL2    -0.180000       12.0110           0
      1790 MEMB     16       SOPE     H16R     HAL2     0.900000E-01   1.00800           0
      1791 MEMB     16       SOPE     H16S     HAL2     0.900000E-01   1.00800           0
      1792 MEMB     16       SOPE     C217     CTL2    -0.180000       12.0110           0
      1793 MEMB     16       SOPE     H17R     HAL2     0.900000E-01   1.00800           0
      1794 MEMB     16       SOPE     H17S     HAL2     0.900000E-01   1.00800           0
      1795 MEMB     16       SOPE     C218     CTL3    -0.270000       12.0110           0
      1796 MEMB     16       SOPE     H18R     HAL3     0.900000E-01   1.00800           0
      1797 MEMB     16       SOPE     H18S     HAL3     0.900000E-01   1.00800           0
      1798 MEMB     16       SOPE     H18T     HAL3     0.900000E-01   1.00800           0
      1799 MEMB     16       SOPE     C33      CTL2    -0.180000       12.0110           0
      1800 MEMB     16       SOPE     H3X      HAL2     0.900000E-01   1.00800           0
      1801 MEMB     16       SOPE     H3Y      HAL2     0.900000E-01   1.00800           0
      1802 MEMB     16       SOPE     C34      CTL2    -0.180000       12.0110           0
      1803 MEMB     16       SOPE     H4X      HAL2     0.900000E-01   1.00800           0
      1804 MEMB     16       SOPE     H4Y      HAL2     0.900000E-01   1.00800           0
      1805 MEMB     16       SOPE     C35      CTL2    -0.180000       12.0110           0
      1806 MEMB     16       SOPE     H5X      HAL2     0.900000E-01   1.00800           0
      1807 MEMB     16       SOPE     H5Y      HAL2     0.900000E-01   1.00800           0
      1808 MEMB     16       SOPE     C36      CTL2    -0.180000       12.0110           0
      1809 MEMB     16       SOPE     H6X      HAL2     0.900000E-01   1.00800           0
      1810 MEMB     16       SOPE     H6Y      HAL2     0.900000E-01   1.00800           0
      1811 MEMB     16       SOPE     C37      CTL2    -0.180000       12.0110           0
      1812 MEMB     16       SOPE     H7X      HAL2     0.900000E-01   1.00800           0
      1813 MEMB     16       SOPE     H7Y      HAL2     0.900000E-01   1.00800           0
      1814 MEMB     16       SOPE     C38      CTL2    -0.180000       12.0110           0
      1815 MEMB     16       SOPE     H8X      HAL2     0.900000E-01   1.00800           0
      1816 MEMB     16       SOPE     H8Y      HAL2     0.900000E-01   1.00800           0
      1817 MEMB     16       SOPE     C39      CTL2    -0.180000       12.0110           0
      1818 MEMB     16       SOPE     H9X      HAL2     0.900000E-01   1.00800           0
      1819 MEMB     16       SOPE     H9Y      HAL2     0.900000E-01   1.00800           0
      1820 MEMB     16       SOPE     C310     CTL2    -0.180000       12.0110           0
      1821 MEMB     16       SOPE     H10X     HAL2     0.900000E-01   1.00800           0
      1822 MEMB     16       SOPE     H10Y     HAL2     0.900000E-01   1.00800           0
      1823 MEMB     16       SOPE     C311     CTL2    -0.180000       12.0110           0
      1824 MEMB     16       SOPE     H11X     HAL2     0.900000E-01   1.00800           0
      1825 MEMB     16       SOPE     H11Y     HAL2     0.900000E-01   1.00800           0
      1826 MEMB     16       SOPE     C312     CTL2    -0.180000       12.0110           0
      1827 MEMB     16       SOPE     H12X     HAL2     0.900000E-01   1.00800           0
      1828 MEMB     16       SOPE     H12Y     HAL2     0.900000E-01   1.00800           0
      1829 MEMB     16       SOPE     C313     CTL2    -0.180000       12.0110           0
      1830 MEMB     16       SOPE     H13X     HAL2     0.900000E-01   1.00800           0
      1831 MEMB     16       SOPE     H13Y     HAL2     0.900000E-01   1.00800           0
      1832 MEMB     16       SOPE     C314     CTL2    -0.180000       12.0110           0
      1833 MEMB     16       SOPE     H14X     HAL2     0.900000E-01   1.00800           0
      1834 MEMB     16       SOPE     H14Y     HAL2     0.900000E-01   1.00800           0
      1835 MEMB     16       SOPE     C315     CTL2    -0.180000       12.0110           0
      1836 MEMB     16       SOPE     H15X     HAL2     0.900000E-01   1.00800           0
      1837 MEMB     16       SOPE     H15Y     HAL2     0.900000E-01   1.00800           0
      1838 MEMB     16       SOPE     C316     CTL2    -0.180000       12.0110           0
      1839 MEMB     16       SOPE     H16X     HAL2     0.900000E-01   1.00800           0
      1840 MEMB     16       SOPE     H16Y     HAL2     0.900000E-01   1.00800           0
      1841 MEMB     16       SOPE     C317     CTL2    -0.180000       12.0110           0
      1842 MEMB     16       SOPE     H17X     HAL2     0.900000E-01   1.00800           0
      1843 MEMB     16       SOPE     H17Y     HAL2     0.900000E-01   1.00800           0
      1844 MEMB     16       SOPE     C318     CTL3    -0.270000       12.0110           0
      1845 MEMB     16       SOPE     H18X     HAL3     0.900000E-01   1.00800           0
      1846 MEMB     16       SOPE     H18Y     HAL3     0.900000E-01   1.00800           0
      1847 MEMB     16       SOPE     H18Z     HAL3     0.900000E-01   1.00800           0
      1848 MEMB     17       SAPE     N        NH3L    -0.300000       14.0070           0
      1849 MEMB     17       SAPE     HN1      HCL      0.330000       1.00800           0
      1850 MEMB     17       SAPE     HN2      HCL      0.330000       1.00800           0
      1851 MEMB     17       SAPE     HN3      HCL      0.330000       1.00800           0
      1852 MEMB     17       SAPE     C12      CTL2     0.130000       12.0110           0
      1853 MEMB     17       SAPE     H12A     HAL2     0.900000E-01   1.00800           0
      1854 MEMB     17       SAPE     H12B     HAL2     0.900000E-01   1.00800           0
      1855 MEMB     17       SAPE     C11      CTL2    -0.800000E-01   12.0110           0
      1856 MEMB     17       SAPE     H11A     HAL2     0.900000E-01   1.00800           0
      1857 MEMB     17       SAPE     H11B     HAL2     0.900000E-01   1.00800           0
      1858 MEMB     17       SAPE     P        PL        1.50000       30.9740           0
      1859 MEMB     17       SAPE     O13      O2L     -0.780000       15.9994           0
      1860 MEMB     17       SAPE     O14      O2L     -0.780000       15.9994           0
      1861 MEMB     17       SAPE     O12      OSLP    -0.570000       15.9994           0
      1862 MEMB     17       SAPE     O11      OSLP    -0.570000       15.9994           0
      1863 MEMB     17       SAPE     C1       CTL2    -0.800000E-01   12.0110           0
      1864 MEMB     17       SAPE     HA       HAL2     0.900000E-01   1.00800           0
      1865 MEMB     17       SAPE     HB       HAL2     0.900000E-01   1.00800           0
      1866 MEMB     17       SAPE     C2       CTL1     0.170000       12.0110           0
      1867 MEMB     17       SAPE     HS       HAL1     0.900000E-01   1.00800           0
      1868 MEMB     17       SAPE     O21      OSL     -0.490000       15.9994           0
      1869 MEMB     17       SAPE     C21      CL       0.900000       12.0110           0
      1870 MEMB     17       SAPE     O22      OBL     -0.630000       15.9994           0
      1871 MEMB     17       SAPE     C22      CTL2    -0.220000       12.0110           0
      1872 MEMB     17       SAPE     H2R      HAL2     0.900000E-01   1.00800           0
      1873 MEMB     17       SAPE     H2S      HAL2     0.900000E-01   1.00800           0
      1874 MEMB     17       SAPE     C3       CTL2     0.800000E-01   12.0110           0
      1875 MEMB     17       SAPE     HX       HAL2     0.900000E-01   1.00800           0
      1876 MEMB     17       SAPE     HY       HAL2     0.900000E-01   1.00800           0
      1877 MEMB     17       SAPE     O31      OSL     -0.490000       15.9994           0
      1878 MEMB     17       SAPE     C31      CL       0.900000       12.0110           0
      1879 MEMB     17       SAPE     O32      OBL     -0.630000       15.9994           0
      1880 MEMB     17       SAPE     C32      CTL2    -0.220000       12.0110           0
      1881 MEMB     17       SAPE     H2X      HAL2     0.900000E-01   1.00800           0
      1882 MEMB     17       SAPE     H2Y      HAL2     0.900000E-01   1.00800           0
      1883 MEMB     17       SAPE     C23      CTL2    -0.180000       12.0110           0
      1884 MEMB     17       SAPE     H3R      HAL2     0.900000E-01   1.00800           0
      1885 MEMB     17       SAPE     H3S      HAL2     0.900000E-01   1.00800           0
      1886 MEMB     17       SAPE     C24      CTL2    -0.180000       12.0110           0
      1887 MEMB     17       SAPE     H4R      HAL2     0.900000E-01   1.00800           0
      1888 MEMB     17       SAPE     H4S      HAL2     0.900000E-01   1.00800           0
      1889 MEMB     17       SAPE     C25      CEL1    -0.150000       12.0110           0
      1890 MEMB     17       SAPE     H5R      HEL1     0.150000       1.00800           0
      1891 MEMB     17       SAPE     C26      CEL1    -0.150000       12.0110           0
      1892 MEMB     17       SAPE     H6R      HEL1     0.150000       1.00800           0
      1893 MEMB     17       SAPE     C27      CTL2    -0.180000       12.0110           0
      1894 MEMB     17       SAPE     H7R      HAL2     0.900000E-01   1.00800           0
      1895 MEMB     17       SAPE     H7S      HAL2     0.900000E-01   1.00800           0
      1896 MEMB     17       SAPE     C28      CEL1    -0.150000       12.0110           0
      1897 MEMB     17       SAPE     H8R      HEL1     0.150000       1.00800           0
      1898 MEMB     17       SAPE     C29      CEL1    -0.150000       12.0110           0
      1899 MEMB     17       SAPE     H9R      HEL1     0.150000       1.00800           0
      1900 MEMB     17       SAPE     C210     CTL2    -0.180000       12.0110           0
      1901 MEMB     17       SAPE     H10R     HAL2     0.900000E-01   1.00800           0
      1902 MEMB     17       SAPE     H10S     HAL2     0.900000E-01   1.00800           0
      1903 MEMB     17       SAPE     C211     CEL1    -0.150000       12.0110           0
      1904 MEMB     17       SAPE     H11R     HEL1     0.150000       1.00800           0
      1905 MEMB     17       SAPE     C212     CEL1    -0.150000       12.0110           0
      1906 MEMB     17       SAPE     H12R     HEL1     0.150000       1.00800           0
      1907 MEMB     17       SAPE     C213     CTL2    -0.180000       12.0110           0
      1908 MEMB     17       SAPE     H13R     HAL2     0.900000E-01   1.00800           0
      1909 MEMB     17       SAPE     H13S     HAL2     0.900000E-01   1.00800           0
      1910 MEMB     17       SAPE     C214     CEL1    -0.150000       12.0110           0
      1911 MEMB     17       SAPE     H14R     HEL1     0.150000       1.00800           0
      1912 MEMB     17       SAPE     C215     CEL1    -0.150000       12.0110           0
      1913 MEMB     17       SAPE     H15R     HEL1     0.150000       1.00800           0
      1914 MEMB     17       SAPE     C216     CTL2    -0.180000       12.0110           0
      1915 MEMB     17       SAPE     H16R     HAL2     0.900000E-01   1.00800           0
      1916 MEMB     17       SAPE     H16S     HAL2     0.900000E-01   1.00800           0
      1917 MEMB     17       SAPE     C217     CTL2    -0.180000       12.0110           0
      1918 MEMB     17       SAPE     H17R     HAL2     0.900000E-01   1.00800           0
      1919 MEMB     17       SAPE     H17S     HAL2     0.900000E-01   1.00800           0
      1920 MEMB     17       SAPE     C218     CTL2    -0.180000       12.0110           0
      1921 MEMB     17       SAPE     H18R     HAL2     0.900000E-01   1.00800           0
      1922 MEMB     17       SAPE     H18S     HAL2     0.900000E-01   1.00800           0
      1923 MEMB     17       SAPE     C219     CTL2    -0.180000       12.0110           0
      1924 MEMB     17       SAPE     H19R     HAL2     0.900000E-01   1.00800           0
      1925 MEMB     17       SAPE     H19S     HAL2     0.900000E-01   1.00800           0
      1926 MEMB     17       SAPE     C220     CTL3    -0.270000       12.0110           0
      1927 MEMB     17       SAPE     H20R     HAL3     0.900000E-01   1.00800           0
      1928 MEMB     17       SAPE     H20S     HAL3     0.900000E-01   1.00800           0
      1929 MEMB     17       SAPE     H20T     HAL3     0.900000E-01   1.00800           0
      1930 MEMB     17       SAPE     C33      CTL2    -0.180000       12.0110           0
      1931 MEMB     17       SAPE     H3X      HAL2     0.900000E-01   1.00800           0
      1932 MEMB     17       SAPE     H3Y      HAL2     0.900000E-01   1.00800           0
      1933 MEMB     17       SAPE     C34      CTL2    -0.180000       12.0110           0
      1934 MEMB     17       SAPE     H4X      HAL2     0.900000E-01   1.00800           0
      1935 MEMB     17       SAPE     H4Y      HAL2     0.900000E-01   1.00800           0
      1936 MEMB     17       SAPE     C35      CTL2    -0.180000       12.0110           0
      1937 MEMB     17       SAPE     H5X      HAL2     0.900000E-01   1.00800           0
      1938 MEMB     17       SAPE     H5Y      HAL2     0.900000E-01   1.00800           0
      1939 MEMB     17       SAPE     C36      CTL2    -0.180000       12.0110           0
      1940 MEMB     17       SAPE     H6X      HAL2     0.900000E-01   1.00800           0
      1941 MEMB     17       SAPE     H6Y      HAL2     0.900000E-01   1.00800           0
      1942 MEMB     17       SAPE     C37      CTL2    -0.180000       12.0110           0
      1943 MEMB     17       SAPE     H7X      HAL2     0.900000E-01   1.00800           0
      1944 MEMB     17       SAPE     H7Y      HAL2     0.900000E-01   1.00800           0
      1945 MEMB     17       SAPE     C38      CTL2    -0.180000       12.0110           0
      1946 MEMB     17       SAPE     H8X      HAL2     0.900000E-01   1.00800           0
      1947 MEMB     17       SAPE     H8Y      HAL2     0.900000E-01   1.00800           0
      1948 MEMB     17       SAPE     C39      CTL2    -0.180000       12.0110           0
      1949 MEMB     17       SAPE     H9X      HAL2     0.900000E-01   1.00800           0
      1950 MEMB     17       SAPE     H9Y      HAL2     0.900000E-01   1.00800           0
      1951 MEMB     17       SAPE     C310     CTL2    -0.180000       12.0110           0
      1952 MEMB     17       SAPE     H10X     HAL2     0.900000E-01   1.00800           0
      1953 MEMB     17       SAPE     H10Y     HAL2     0.900000E-01   1.00800           0
      1954 MEMB     17       SAPE     C311     CTL2    -0.180000       12.0110           0
      1955 MEMB     17       SAPE     H11X     HAL2     0.900000E-01   1.00800           0
      1956 MEMB     17       SAPE     H11Y     HAL2     0.900000E-01   1.00800           0
      1957 MEMB     17       SAPE     C312     CTL2    -0.180000       12.0110           0
      1958 MEMB     17       SAPE     H12X     HAL2     0.900000E-01   1.00800           0
      1959 MEMB     17       SAPE     H12Y     HAL2     0.900000E-01   1.00800           0
      1960 MEMB     17       SAPE     C313     CTL2    -0.180000       12.0110           0
      1961 MEMB     17       SAPE     H13X     HAL2     0.900000E-01   1.00800           0
      1962 MEMB     17       SAPE     H13Y     HAL2     0.900000E-01   1.00800           0
      1963 MEMB     17       SAPE     C314     CTL2    -0.180000       12.0110           0
      1964 MEMB     17       SAPE     H14X     HAL2     0.900000E-01   1.00800           0
      1965 MEMB     17       SAPE     H14Y     HAL2     0.900000E-01   1.00800           0
      1966 MEMB     17       SAPE     C315     CTL2    -0.180000       12.0110           0
      1967 MEMB     17       SAPE     H15X     HAL2     0.900000E-01   1.00800           0
      1968 MEMB     17       SAPE     H15Y     HAL2     0.900000E-01   1.00800           0
      1969 MEMB     17       SAPE     C316     CTL2    -0.180000       12.0110           0
      1970 MEMB     17       SAPE     H16X     HAL2     0.900000E-01   1.00800           0
      1971 MEMB     17       SAPE     H16Y     HAL2     0.900000E-01   1.00800           0
      1972 MEMB     17       SAPE     C317     CTL2    -0.180000       12.0110           0
      1973 MEMB     17       SAPE     H17X     HAL2     0.900000E-01   1.00800           0
      1974 MEMB     17       SAPE     H17Y     HAL2     0.900000E-01   1.00800           0
      1975 MEMB     17       SAPE     C318     CTL3    -0.270000       12.0110           0
      1976 MEMB     17       SAPE     H18X     HAL3     0.900000E-01   1.00800           0
      1977 MEMB     17       SAPE     H18Y     HAL3     0.900000E-01   1.00800           0
      1978 MEMB     17       SAPE     H18Z     HAL3     0.900000E-01   1.00800           0
      1979 MEMB     18       CHL1     C3       CRL1     0.140000       12.0110           0
      1980 MEMB     18       CHL1     H3       HGA1     0.900000E-01   1.00800           0
      1981 MEMB     18       CHL1     O3       OHL     -0.660000       15.9994           0
      1982 MEMB     18       CHL1     H3'      HOL      0.430000       1.00800           0
      1983 MEMB     18       CHL1     C4       CRL2    -0.180000       12.0110           0
      1984 MEMB     18       CHL1     H4A      HGA2     0.900000E-01   1.00800           0
      1985 MEMB     18       CHL1     H4B      HGA2     0.900000E-01   1.00800           0
      1986 MEMB     18       CHL1     C5       CEL1      0.00000       12.0110           0
      1987 MEMB     18       CHL1     C6       CEL1    -0.150000       12.0110           0
      1988 MEMB     18       CHL1     H6       HEL1     0.150000       1.00800           0
      1989 MEMB     18       CHL1     C7       CRL2    -0.180000       12.0110           0
      1990 MEMB     18       CHL1     H7A      HGA2     0.900000E-01   1.00800           0
      1991 MEMB     18       CHL1     H7B      HGA2     0.900000E-01   1.00800           0
      1992 MEMB     18       CHL1     C8       CRL1    -0.900000E-01   12.0110           0
      1993 MEMB     18       CHL1     H8       HGA1     0.900000E-01   1.00800           0
      1994 MEMB     18       CHL1     C14      CRL1    -0.900000E-01   12.0110           0
      1995 MEMB     18       CHL1     H14      HGA1     0.900000E-01   1.00800           0
      1996 MEMB     18       CHL1     C15      CRL2    -0.180000       12.0110           0
      1997 MEMB     18       CHL1     H15A     HGA2     0.900000E-01   1.00800           0
      1998 MEMB     18       CHL1     H15B     HGA2     0.900000E-01   1.00800           0
      1999 MEMB     18       CHL1     C16      CRL2    -0.180000       12.0110           0
      2000 MEMB     18       CHL1     H16A     HGA2     0.900000E-01   1.00800           0
      2001 MEMB     18       CHL1     H16B     HGA2     0.900000E-01   1.00800           0
      2002 MEMB     18       CHL1     C17      CRL1    -0.900000E-01   12.0110           0
      2003 MEMB     18       CHL1     H17      HGA1     0.900000E-01   1.00800           0
      2004 MEMB     18       CHL1     C13      CRL1      0.00000       12.0110           0
      2005 MEMB     18       CHL1     C18      CTL3    -0.270000       12.0110           0
      2006 MEMB     18       CHL1     H18A     HAL3     0.900000E-01   1.00800           0
      2007 MEMB     18       CHL1     H18B     HAL3     0.900000E-01   1.00800           0
      2008 MEMB     18       CHL1     H18C     HAL3     0.900000E-01   1.00800           0
      2009 MEMB     18       CHL1     C12      CRL2    -0.180000       12.0110           0
      2010 MEMB     18       CHL1     H12A     HGA2     0.900000E-01   1.00800           0
      2011 MEMB     18       CHL1     H12B     HGA2     0.900000E-01   1.00800           0
      2012 MEMB     18       CHL1     C11      CRL2    -0.180000       12.0110           0
      2013 MEMB     18       CHL1     H11A     HGA2     0.900000E-01   1.00800           0
      2014 MEMB     18       CHL1     H11B     HGA2     0.900000E-01   1.00800           0
      2015 MEMB     18       CHL1     C9       CRL1    -0.900000E-01   12.0110           0
      2016 MEMB     18       CHL1     H9       HGA1     0.900000E-01   1.00800           0
      2017 MEMB     18       CHL1     C10      CRL1      0.00000       12.0110           0
      2018 MEMB     18       CHL1     C19      CTL3    -0.270000       12.0110           0
      2019 MEMB     18       CHL1     H19A     HAL3     0.900000E-01   1.00800           0
      2020 MEMB     18       CHL1     H19B     HAL3     0.900000E-01   1.00800           0
      2021 MEMB     18       CHL1     H19C     HAL3     0.900000E-01   1.00800           0
      2022 MEMB     18       CHL1     C1       CRL2    -0.180000       12.0110           0
      2023 MEMB     18       CHL1     H1A      HGA2     0.900000E-01   1.00800           0
      2024 MEMB     18       CHL1     H1B      HGA2     0.900000E-01   1.00800           0
      2025 MEMB     18       CHL1     C2       CRL2    -0.180000       12.0110           0
      2026 MEMB     18       CHL1     H2A      HGA2     0.900000E-01   1.00800           0
      2027 MEMB     18       CHL1     H2B      HGA2     0.900000E-01   1.00800           0
      2028 MEMB     18       CHL1     C20      CTL1    -0.900000E-01   12.0110           0
      2029 MEMB     18       CHL1     H20      HAL1     0.900000E-01   1.00800           0
      2030 MEMB     18       CHL1     C21      CTL3    -0.270000       12.0110           0
      2031 MEMB     18       CHL1     H21A     HAL3     0.900000E-01   1.00800           0
      2032 MEMB     18       CHL1     H21B     HAL3     0.900000E-01   1.00800           0
      2033 MEMB     18       CHL1     H21C     HAL3     0.900000E-01   1.00800           0
      2034 MEMB     18       CHL1     C22      CTL2    -0.180000       12.0110           0
      2035 MEMB     18       CHL1     H22A     HAL2     0.900000E-01   1.00800           0
      2036 MEMB     18       CHL1     H22B     HAL2     0.900000E-01   1.00800           0
      2037 MEMB     18       CHL1     C23      CTL2    -0.180000       12.0110           0
      2038 MEMB     18       CHL1     H23A     HAL2     0.900000E-01   1.00800           0
      2039 MEMB     18       CHL1     H23B     HAL2     0.900000E-01   1.00800           0
      2040 MEMB     18       CHL1     C24      CTL2    -0.180000       12.0110           0
      2041 MEMB     18       CHL1     H24A     HAL2     0.900000E-01   1.00800           0
      2042 MEMB     18       CHL1     H24B     HAL2     0.900000E-01   1.00800           0
      2043 MEMB     18       CHL1     C25      CTL1    -0.900000E-01   12.0110           0
      2044 MEMB     18       CHL1     H25      HAL1     0.900000E-01   1.00800           0
      2045 MEMB     18       CHL1     C26      CTL3    -0.270000       12.0110           0
      2046 MEMB     18       CHL1     H26A     HAL3     0.900000E-01   1.00800           0
      2047 MEMB     18       CHL1     H26B     HAL3     0.900000E-01   1.00800           0
      2048 MEMB     18       CHL1     H26C     HAL3     0.900000E-01   1.00800           0
      2049 MEMB     18       CHL1     C27      CTL3    -0.270000       12.0110           0
      2050 MEMB     18       CHL1     H27A     HAL3     0.900000E-01   1.00800           0
      2051 MEMB     18       CHL1     H27B     HAL3     0.900000E-01   1.00800           0
      2052 MEMB     18       CHL1     H27C     HAL3     0.900000E-01   1.00800           0
      2053 MEMB     19       OSM      N        NTL     -0.600000       14.0070           0
      2054 MEMB     19       OSM      C15      CTL5    -0.350000       12.0110           0
      2055 MEMB     19       OSM      H15A     HL       0.250000       1.00800           0
      2056 MEMB     19       OSM      H15B     HL       0.250000       1.00800           0
      2057 MEMB     19       OSM      H15C     HL       0.250000       1.00800           0
      2058 MEMB     19       OSM      C14      CTL5    -0.350000       12.0110           0
      2059 MEMB     19       OSM      H14A     HL       0.250000       1.00800           0
      2060 MEMB     19       OSM      H14B     HL       0.250000       1.00800           0
      2061 MEMB     19       OSM      H14C     HL       0.250000       1.00800           0
      2062 MEMB     19       OSM      C13      CTL5    -0.350000       12.0110           0
      2063 MEMB     19       OSM      H13A     HL       0.250000       1.00800           0
      2064 MEMB     19       OSM      H13B     HL       0.250000       1.00800           0
      2065 MEMB     19       OSM      H13C     HL       0.250000       1.00800           0
      2066 MEMB     19       OSM      C12      CTL2    -0.100000       12.0110           0
      2067 MEMB     19       OSM      H12A     HL       0.250000       1.00800           0
      2068 MEMB     19       OSM      H12B     HL       0.250000       1.00800           0
      2069 MEMB     19       OSM      C11      CTL2    -0.800000E-01   12.0110           0
      2070 MEMB     19       OSM      H11A     HAL2     0.900000E-01   1.00800           0
      2071 MEMB     19       OSM      H11B     HAL2     0.900000E-01   1.00800           0
      2072 MEMB     19       OSM      P        PL        1.50000       30.9740           0
      2073 MEMB     19       OSM      O13      O2L     -0.780000       15.9994           0
      2074 MEMB     19       OSM      O14      O2L     -0.780000       15.9994           0
      2075 MEMB     19       OSM      O11      OSLP    -0.570000       15.9994           0
      2076 MEMB     19       OSM      O12      OSLP    -0.570000       15.9994           0
      2077 MEMB     19       OSM      C1S      CTL2    -0.800000E-01   12.0110           0
      2078 MEMB     19       OSM      H1S      HAL2     0.900000E-01   1.00800           0
      2079 MEMB     19       OSM      H1T      HAL2     0.900000E-01   1.00800           0
      2080 MEMB     19       OSM      NF       NHL     -0.700000       14.0070           0
      2081 MEMB     19       OSM      HNF      H        0.350000       1.00800           0
      2082 MEMB     19       OSM      C2S      CTL1     0.300000       12.0110           0
      2083 MEMB     19       OSM      H2S      HAL1     0.500000E-01   1.00800           0
      2084 MEMB     19       OSM      C3S      CTO1     0.500000       12.0110           0
      2085 MEMB     19       OSM      H3S      HAL1    -0.110000       1.00800           0
      2086 MEMB     19       OSM      O3       OHL     -0.690000       15.9994           0
      2087 MEMB     19       OSM      HO3      HOL      0.300000       1.00800           0
      2088 MEMB     19       OSM      C4S      CEL3    -0.150000       12.0110           0
      2089 MEMB     19       OSM      H4S      HEL1     0.150000       1.00800           0
      2090 MEMB     19       OSM      C5S      CEL3    -0.150000       12.0110           0
      2091 MEMB     19       OSM      H5S      HEL1     0.150000       1.00800           0
      2092 MEMB     19       OSM      C6S      CTL2    -0.180000       12.0110           0
      2093 MEMB     19       OSM      H6S      HAL2     0.900000E-01   1.00800           0
      2094 MEMB     19       OSM      H6T      HAL2     0.900000E-01   1.00800           0
      2095 MEMB     19       OSM      C7S      CTL2    -0.180000       12.0110           0
      2096 MEMB     19       OSM      H7S      HAL2     0.900000E-01   1.00800           0
      2097 MEMB     19       OSM      H7T      HAL2     0.900000E-01   1.00800           0
      2098 MEMB     19       OSM      C8S      CTL2    -0.180000       12.0110           0
      2099 MEMB     19       OSM      H8S      HAL2     0.900000E-01   1.00800           0
      2100 MEMB     19       OSM      H8T      HAL2     0.900000E-01   1.00800           0
      2101 MEMB     19       OSM      C9S      CTL2    -0.180000       12.0110           0
      2102 MEMB     19       OSM      H9S      HAL2     0.900000E-01   1.00800           0
      2103 MEMB     19       OSM      H9T      HAL2     0.900000E-01   1.00800           0
      2104 MEMB     19       OSM      C10S     CTL2    -0.180000       12.0110           0
      2105 MEMB     19       OSM      H10S     HAL2     0.900000E-01   1.00800           0
      2106 MEMB     19       OSM      H10T     HAL2     0.900000E-01   1.00800           0
      2107 MEMB     19       OSM      C11S     CTL2    -0.180000       12.0110           0
      2108 MEMB     19       OSM      H11S     HAL2     0.900000E-01   1.00800           0
      2109 MEMB     19       OSM      H11T     HAL2     0.900000E-01   1.00800           0
      2110 MEMB     19       OSM      C12S     CTL2    -0.180000       12.0110           0
      2111 MEMB     19       OSM      H12S     HAL2     0.900000E-01   1.00800           0
      2112 MEMB     19       OSM      H12T     HAL2     0.900000E-01   1.00800           0
      2113 MEMB     19       OSM      C13S     CTL2    -0.180000       12.0110           0
      2114 MEMB     19       OSM      H13S     HAL2     0.900000E-01   1.00800           0
      2115 MEMB     19       OSM      H13T     HAL2     0.900000E-01   1.00800           0
      2116 MEMB     19       OSM      C14S     CTL2    -0.180000       12.0110           0
      2117 MEMB     19       OSM      H14S     HAL2     0.900000E-01   1.00800           0
      2118 MEMB     19       OSM      H14T     HAL2     0.900000E-01   1.00800           0
      2119 MEMB     19       OSM      C15S     CTL2    -0.180000       12.0110           0
      2120 MEMB     19       OSM      H15S     HAL2     0.900000E-01   1.00800           0
      2121 MEMB     19       OSM      H15T     HAL2     0.900000E-01   1.00800           0
      2122 MEMB     19       OSM      C16S     CTL2    -0.180000       12.0110           0
      2123 MEMB     19       OSM      H16S     HAL2     0.900000E-01   1.00800           0
      2124 MEMB     19       OSM      H16T     HAL2     0.900000E-01   1.00800           0
      2125 MEMB     19       OSM      C17S     CTL2    -0.180000       12.0110           0
      2126 MEMB     19       OSM      H17S     HAL2     0.900000E-01   1.00800           0
      2127 MEMB     19       OSM      H17T     HAL2     0.900000E-01   1.00800           0
      2128 MEMB     19       OSM      C18S     CTL3    -0.270000       12.0110           0
      2129 MEMB     19       OSM      H18S     HAL3     0.900000E-01   1.00800           0
      2130 MEMB     19       OSM      H18T     HAL3     0.900000E-01   1.00800           0
      2131 MEMB     19       OSM      H18U     HAL3     0.900000E-01   1.00800           0
      2132 MEMB     19       OSM      C1F      C        0.550000       12.0110           0
      2133 MEMB     19       OSM      OF       O       -0.600000       15.9994           0
      2134 MEMB     19       OSM      C2F      CTL2    -0.700000E-01   12.0110           0
      2135 MEMB     19       OSM      H2F      HAL2     0.600000E-01   1.00800           0
      2136 MEMB     19       OSM      H2G      HAL2     0.600000E-01   1.00800           0
      2137 MEMB     19       OSM      C3F      CTL2    -0.180000       12.0110           0
      2138 MEMB     19       OSM      H3F      HAL2     0.900000E-01   1.00800           0
      2139 MEMB     19       OSM      H3G      HAL2     0.900000E-01   1.00800           0
      2140 MEMB     19       OSM      C4F      CTL2    -0.180000       12.0110           0
      2141 MEMB     19       OSM      H4F      HAL2     0.900000E-01   1.00800           0
      2142 MEMB     19       OSM      H4G      HAL2     0.900000E-01   1.00800           0
      2143 MEMB     19       OSM      C5F      CTL2    -0.180000       12.0110           0
      2144 MEMB     19       OSM      H5F      HAL2     0.900000E-01   1.00800           0
      2145 MEMB     19       OSM      H5G      HAL2     0.900000E-01   1.00800           0
      2146 MEMB     19       OSM      C6F      CTL2    -0.180000       12.0110           0
      2147 MEMB     19       OSM      H6F      HAL2     0.900000E-01   1.00800           0
      2148 MEMB     19       OSM      H6G      HAL2     0.900000E-01   1.00800           0
      2149 MEMB     19       OSM      C7F      CTL2    -0.180000       12.0110           0
      2150 MEMB     19       OSM      H7F      HAL2     0.900000E-01   1.00800           0
      2151 MEMB     19       OSM      H7G      HAL2     0.900000E-01   1.00800           0
      2152 MEMB     19       OSM      C8F      CTL2    -0.180000       12.0110           0
      2153 MEMB     19       OSM      H8F      HAL2     0.900000E-01   1.00800           0
      2154 MEMB     19       OSM      H8G      HAL2     0.900000E-01   1.00800           0
      2155 MEMB     19       OSM      C9F      CEL1    -0.150000       12.0110           0
      2156 MEMB     19       OSM      H9F      HEL1     0.150000       1.00800           0
      2157 MEMB     19       OSM      C10F     CEL1    -0.150000       12.0110           0
      2158 MEMB     19       OSM      H10F     HEL1     0.150000       1.00800           0
      2159 MEMB     19       OSM      C11F     CTL2    -0.180000       12.0110           0
      2160 MEMB     19       OSM      H11F     HAL2     0.900000E-01   1.00800           0
      2161 MEMB     19       OSM      H11G     HAL2     0.900000E-01   1.00800           0
      2162 MEMB     19       OSM      C12F     CTL2    -0.180000       12.0110           0
      2163 MEMB     19       OSM      H12F     HAL2     0.900000E-01   1.00800           0
      2164 MEMB     19       OSM      H12G     HAL2     0.900000E-01   1.00800           0
      2165 MEMB     19       OSM      C13F     CTL2    -0.180000       12.0110           0
      2166 MEMB     19       OSM      H13F     HAL2     0.900000E-01   1.00800           0
      2167 MEMB     19       OSM      H13G     HAL2     0.900000E-01   1.00800           0
      2168 MEMB     19       OSM      C14F     CTL2    -0.180000       12.0110           0
      2169 MEMB     19       OSM      H14F     HAL2     0.900000E-01   1.00800           0
      2170 MEMB     19       OSM      H14G     HAL2     0.900000E-01   1.00800           0
      2171 MEMB     19       OSM      C15F     CTL2    -0.180000       12.0110           0
      2172 MEMB     19       OSM      H15F     HAL2     0.900000E-01   1.00800           0
      2173 MEMB     19       OSM      H15G     HAL2     0.900000E-01   1.00800           0
      2174 MEMB     19       OSM      C16F     CTL2    -0.180000       12.0110           0
      2175 MEMB     19       OSM      H16F     HAL2     0.900000E-01   1.00800           0
      2176 MEMB     19       OSM      H16G     HAL2     0.900000E-01   1.00800           0
      2177 MEMB     19       OSM      C17F     CTL2    -0.180000       12.0110           0
      2178 MEMB     19       OSM      H17F     HAL2     0.900000E-01   1.00800           0
      2179 MEMB     19       OSM      H17G     HAL2     0.900000E-01   1.00800           0
      2180 MEMB     19       OSM      C18F     CTL3    -0.270000       12.0110           0
      2181 MEMB     19       OSM      H18F     HAL3     0.900000E-01   1.00800           0
      2182 MEMB     19       OSM      H18G     HAL3     0.900000E-01   1.00800           0
      2183 MEMB     19       OSM      H18H     HAL3     0.900000E-01   1.00800           0
      2184 MEMB     20       CHL1     C3       CRL1     0.140000       12.0110           0
      2185 MEMB     20       CHL1     H3       HGA1     0.900000E-01   1.00800           0
      2186 MEMB     20       CHL1     O3       OHL     -0.660000       15.9994           0
      2187 MEMB     20       CHL1     H3'      HOL      0.430000       1.00800           0
      2188 MEMB     20       CHL1     C4       CRL2    -0.180000       12.0110           0
      2189 MEMB     20       CHL1     H4A      HGA2     0.900000E-01   1.00800           0
      2190 MEMB     20       CHL1     H4B      HGA2     0.900000E-01   1.00800           0
      2191 MEMB     20       CHL1     C5       CEL1      0.00000       12.0110           0
      2192 MEMB     20       CHL1     C6       CEL1    -0.150000       12.0110           0
      2193 MEMB     20       CHL1     H6       HEL1     0.150000       1.00800           0
      2194 MEMB     20       CHL1     C7       CRL2    -0.180000       12.0110           0
      2195 MEMB     20       CHL1     H7A      HGA2     0.900000E-01   1.00800           0
      2196 MEMB     20       CHL1     H7B      HGA2     0.900000E-01   1.00800           0
      2197 MEMB     20       CHL1     C8       CRL1    -0.900000E-01   12.0110           0
      2198 MEMB     20       CHL1     H8       HGA1     0.900000E-01   1.00800           0
      2199 MEMB     20       CHL1     C14      CRL1    -0.900000E-01   12.0110           0
      2200 MEMB     20       CHL1     H14      HGA1     0.900000E-01   1.00800           0
      2201 MEMB     20       CHL1     C15      CRL2    -0.180000       12.0110           0
      2202 MEMB     20       CHL1     H15A     HGA2     0.900000E-01   1.00800           0
      2203 MEMB     20       CHL1     H15B     HGA2     0.900000E-01   1.00800           0
      2204 MEMB     20       CHL1     C16      CRL2    -0.180000       12.0110           0
      2205 MEMB     20       CHL1     H16A     HGA2     0.900000E-01   1.00800           0
      2206 MEMB     20       CHL1     H16B     HGA2     0.900000E-01   1.00800           0
      2207 MEMB     20       CHL1     C17      CRL1    -0.900000E-01   12.0110           0
      2208 MEMB     20       CHL1     H17      HGA1     0.900000E-01   1.00800           0
      2209 MEMB     20       CHL1     C13      CRL1      0.00000       12.0110           0
      2210 MEMB     20       CHL1     C18      CTL3    -0.270000       12.0110           0
      2211 MEMB     20       CHL1     H18A     HAL3     0.900000E-01   1.00800           0
      2212 MEMB     20       CHL1     H18B     HAL3     0.900000E-01   1.00800           0
      2213 MEMB     20       CHL1     H18C     HAL3     0.900000E-01   1.00800           0
      2214 MEMB     20       CHL1     C12      CRL2    -0.180000       12.0110           0
      2215 MEMB     20       CHL1     H12A     HGA2     0.900000E-01   1.00800           0
      2216 MEMB     20       CHL1     H12B     HGA2     0.900000E-01   1.00800           0
      2217 MEMB     20       CHL1     C11      CRL2    -0.180000       12.0110           0
      2218 MEMB     20       CHL1     H11A     HGA2     0.900000E-01   1.00800           0
      2219 MEMB     20       CHL1     H11B     HGA2     0.900000E-01   1.00800           0
      2220 MEMB     20       CHL1     C9       CRL1    -0.900000E-01   12.0110           0
      2221 MEMB     20       CHL1     H9       HGA1     0.900000E-01   1.00800           0
      2222 MEMB     20       CHL1     C10      CRL1      0.00000       12.0110           0
      2223 MEMB     20       CHL1     C19      CTL3    -0.270000       12.0110           0
      2224 MEMB     20       CHL1     H19A     HAL3     0.900000E-01   1.00800           0
      2225 MEMB     20       CHL1     H19B     HAL3     0.900000E-01   1.00800           0
      2226 MEMB     20       CHL1     H19C     HAL3     0.900000E-01   1.00800           0
      2227 MEMB     20       CHL1     C1       CRL2    -0.180000       12.0110           0
      2228 MEMB     20       CHL1     H1A      HGA2     0.900000E-01   1.00800           0
      2229 MEMB     20       CHL1     H1B      HGA2     0.900000E-01   1.00800           0
      2230 MEMB     20       CHL1     C2       CRL2    -0.180000       12.0110           0
      2231 MEMB     20       CHL1     H2A      HGA2     0.900000E-01   1.00800           0
      2232 MEMB     20       CHL1     H2B      HGA2     0.900000E-01   1.00800           0
      2233 MEMB     20       CHL1     C20      CTL1    -0.900000E-01   12.0110           0
      2234 MEMB     20       CHL1     H20      HAL1     0.900000E-01   1.00800           0
      2235 MEMB     20       CHL1     C21      CTL3    -0.270000       12.0110           0
      2236 MEMB     20       CHL1     H21A     HAL3     0.900000E-01   1.00800           0
      2237 MEMB     20       CHL1     H21B     HAL3     0.900000E-01   1.00800           0
      2238 MEMB     20       CHL1     H21C     HAL3     0.900000E-01   1.00800           0
      2239 MEMB     20       CHL1     C22      CTL2    -0.180000       12.0110           0
      2240 MEMB     20       CHL1     H22A     HAL2     0.900000E-01   1.00800           0
      2241 MEMB     20       CHL1     H22B     HAL2     0.900000E-01   1.00800           0
      2242 MEMB     20       CHL1     C23      CTL2    -0.180000       12.0110           0
      2243 MEMB     20       CHL1     H23A     HAL2     0.900000E-01   1.00800           0
      2244 MEMB     20       CHL1     H23B     HAL2     0.900000E-01   1.00800           0
      2245 MEMB     20       CHL1     C24      CTL2    -0.180000       12.0110           0
      2246 MEMB     20       CHL1     H24A     HAL2     0.900000E-01   1.00800           0
      2247 MEMB     20       CHL1     H24B     HAL2     0.900000E-01   1.00800           0
      2248 MEMB     20       CHL1     C25      CTL1    -0.900000E-01   12.0110           0
      2249 MEMB     20       CHL1     H25      HAL1     0.900000E-01   1.00800           0
      2250 MEMB     20       CHL1     C26      CTL3    -0.270000       12.0110           0
      2251 MEMB     20       CHL1     H26A     HAL3     0.900000E-01   1.00800           0
      2252 MEMB     20       CHL1     H26B     HAL3     0.900000E-01   1.00800           0
      2253 MEMB     20       CHL1     H26C     HAL3     0.900000E-01   1.00800           0
      2254 MEMB     20       CHL1     C27      CTL3    -0.270000       12.0110           0
      2255 MEMB     20       CHL1     H27A     HAL3     0.900000E-01   1.00800           0
      2256 MEMB     20       CHL1     H27B     HAL3     0.900000E-01   1.00800           0
      2257 MEMB     20       CHL1     H27C     HAL3     0.900000E-01   1.00800           0
      2258 MEMB     21       CHL1     C3       CRL1     0.140000       12.0110           0
      2259 MEMB     21       CHL1     H3       HGA1     0.900000E-01   1.00800           0
      2260 MEMB     21       CHL1     O3       OHL     -0.660000       15.9994           0
      2261 MEMB     21       CHL1     H3'      HOL      0.430000       1.00800           0
      2262 MEMB     21       CHL1     C4       CRL2    -0.180000       12.0110           0
      2263 MEMB     21       CHL1     H4A      HGA2     0.900000E-01   1.00800           0
      2264 MEMB     21       CHL1     H4B      HGA2     0.900000E-01   1.00800           0
      2265 MEMB     21       CHL1     C5       CEL1      0.00000       12.0110           0
      2266 MEMB     21       CHL1     C6       CEL1    -0.150000       12.0110           0
      2267 MEMB     21       CHL1     H6       HEL1     0.150000       1.00800           0
      2268 MEMB     21       CHL1     C7       CRL2    -0.180000       12.0110           0
      2269 MEMB     21       CHL1     H7A      HGA2     0.900000E-01   1.00800           0
      2270 MEMB     21       CHL1     H7B      HGA2     0.900000E-01   1.00800           0
      2271 MEMB     21       CHL1     C8       CRL1    -0.900000E-01   12.0110           0
      2272 MEMB     21       CHL1     H8       HGA1     0.900000E-01   1.00800           0
      2273 MEMB     21       CHL1     C14      CRL1    -0.900000E-01   12.0110           0
      2274 MEMB     21       CHL1     H14      HGA1     0.900000E-01   1.00800           0
      2275 MEMB     21       CHL1     C15      CRL2    -0.180000       12.0110           0
      2276 MEMB     21       CHL1     H15A     HGA2     0.900000E-01   1.00800           0
      2277 MEMB     21       CHL1     H15B     HGA2     0.900000E-01   1.00800           0
      2278 MEMB     21       CHL1     C16      CRL2    -0.180000       12.0110           0
      2279 MEMB     21       CHL1     H16A     HGA2     0.900000E-01   1.00800           0
      2280 MEMB     21       CHL1     H16B     HGA2     0.900000E-01   1.00800           0
      2281 MEMB     21       CHL1     C17      CRL1    -0.900000E-01   12.0110           0
      2282 MEMB     21       CHL1     H17      HGA1     0.900000E-01   1.00800           0
      2283 MEMB     21       CHL1     C13      CRL1      0.00000       12.0110           0
      2284 MEMB     21       CHL1     C18      CTL3    -0.270000       12.0110           0
      2285 MEMB     21       CHL1     H18A     HAL3     0.900000E-01   1.00800           0
      2286 MEMB     21       CHL1     H18B     HAL3     0.900000E-01   1.00800           0
      2287 MEMB     21       CHL1     H18C     HAL3     0.900000E-01   1.00800           0
      2288 MEMB     21       CHL1     C12      CRL2    -0.180000       12.0110           0
      2289 MEMB     21       CHL1     H12A     HGA2     0.900000E-01   1.00800           0
      2290 MEMB     21       CHL1     H12B     HGA2     0.900000E-01   1.00800           0
      2291 MEMB     21       CHL1     C11      CRL2    -0.180000       12.0110           0
      2292 MEMB     21       CHL1     H11A     HGA2     0.900000E-01   1.00800           0
      2293 MEMB     21       CHL1     H11B     HGA2     0.900000E-01   1.00800           0
      2294 MEMB     21       CHL1     C9       CRL1    -0.900000E-01   12.0110           0
      2295 MEMB     21       CHL1     H9       HGA1     0.900000E-01   1.00800           0
      2296 MEMB     21       CHL1     C10      CRL1      0.00000       12.0110           0
      2297 MEMB     21       CHL1     C19      CTL3    -0.270000       12.0110           0
      2298 MEMB     21       CHL1     H19A     HAL3     0.900000E-01   1.00800           0
      2299 MEMB     21       CHL1     H19B     HAL3     0.900000E-01   1.00800           0
      2300 MEMB     21       CHL1     H19C     HAL3     0.900000E-01   1.00800           0
      2301 MEMB     21       CHL1     C1       CRL2    -0.180000       12.0110           0
      2302 MEMB     21       CHL1     H1A      HGA2     0.900000E-01   1.00800           0
      2303 MEMB     21       CHL1     H1B      HGA2     0.900000E-01   1.00800           0
      2304 MEMB     21       CHL1     C2       CRL2    -0.180000       12.0110           0
      2305 MEMB     21       CHL1     H2A      HGA2     0.900000E-01   1.00800           0
      2306 MEMB     21       CHL1     H2B      HGA2     0.900000E-01   1.00800           0
      2307 MEMB     21       CHL1     C20      CTL1    -0.900000E-01   12.0110           0
      2308 MEMB     21       CHL1     H20      HAL1     0.900000E-01   1.00800           0
      2309 MEMB     21       CHL1     C21      CTL3    -0.270000       12.0110           0
      2310 MEMB     21       CHL1     H21A     HAL3     0.900000E-01   1.00800           0
      2311 MEMB     21       CHL1     H21B     HAL3     0.900000E-01   1.00800           0
      2312 MEMB     21       CHL1     H21C     HAL3     0.900000E-01   1.00800           0
      2313 MEMB     21       CHL1     C22      CTL2    -0.180000       12.0110           0
      2314 MEMB     21       CHL1     H22A     HAL2     0.900000E-01   1.00800           0
      2315 MEMB     21       CHL1     H22B     HAL2     0.900000E-01   1.00800           0
      2316 MEMB     21       CHL1     C23      CTL2    -0.180000       12.0110           0
      2317 MEMB     21       CHL1     H23A     HAL2     0.900000E-01   1.00800           0
      2318 MEMB     21       CHL1     H23B     HAL2     0.900000E-01   1.00800           0
      2319 MEMB     21       CHL1     C24      CTL2    -0.180000       12.0110           0
      2320 MEMB     21       CHL1     H24A     HAL2     0.900000E-01   1.00800           0
      2321 MEMB     21       CHL1     H24B     HAL2     0.900000E-01   1.00800           0
      2322 MEMB     21       CHL1     C25      CTL1    -0.900000E-01   12.0110           0
      2323 MEMB     21       CHL1     H25      HAL1     0.900000E-01   1.00800           0
      2324 MEMB     21       CHL1     C26      CTL3    -0.270000       12.0110           0
      2325 MEMB     21       CHL1     H26A     HAL3     0.900000E-01   1.00800           0
      2326 MEMB     21       CHL1     H26B     HAL3     0.900000E-01   1.00800           0
      2327 MEMB     21       CHL1     H26C     HAL3     0.900000E-01   1.00800           0
      2328 MEMB     21       CHL1     C27      CTL3    -0.270000       12.0110           0
      2329 MEMB     21       CHL1     H27A     HAL3     0.900000E-01   1.00800           0
      2330 MEMB     21       CHL1     H27B     HAL3     0.900000E-01   1.00800           0
      2331 MEMB     21       CHL1     H27C     HAL3     0.900000E-01   1.00800           0
      2332 MEMB     22       CHL1     C3       CRL1     0.140000       12.0110           0
      2333 MEMB     22       CHL1     H3       HGA1     0.900000E-01   1.00800           0
      2334 MEMB     22       CHL1     O3       OHL     -0.660000       15.9994           0
      2335 MEMB     22       CHL1     H3'      HOL      0.430000       1.00800           0
      2336 MEMB     22       CHL1     C4       CRL2    -0.180000       12.0110           0
      2337 MEMB     22       CHL1     H4A      HGA2     0.900000E-01   1.00800           0
      2338 MEMB     22       CHL1     H4B      HGA2     0.900000E-01   1.00800           0
      2339 MEMB     22       CHL1     C5       CEL1      0.00000       12.0110           0
      2340 MEMB     22       CHL1     C6       CEL1    -0.150000       12.0110           0
      2341 MEMB     22       CHL1     H6       HEL1     0.150000       1.00800           0
      2342 MEMB     22       CHL1     C7       CRL2    -0.180000       12.0110           0
      2343 MEMB     22       CHL1     H7A      HGA2     0.900000E-01   1.00800           0
      2344 MEMB     22       CHL1     H7B      HGA2     0.900000E-01   1.00800           0
      2345 MEMB     22       CHL1     C8       CRL1    -0.900000E-01   12.0110           0
      2346 MEMB     22       CHL1     H8       HGA1     0.900000E-01   1.00800           0
      2347 MEMB     22       CHL1     C14      CRL1    -0.900000E-01   12.0110           0
      2348 MEMB     22       CHL1     H14      HGA1     0.900000E-01   1.00800           0
      2349 MEMB     22       CHL1     C15      CRL2    -0.180000       12.0110           0
      2350 MEMB     22       CHL1     H15A     HGA2     0.900000E-01   1.00800           0
      2351 MEMB     22       CHL1     H15B     HGA2     0.900000E-01   1.00800           0
      2352 MEMB     22       CHL1     C16      CRL2    -0.180000       12.0110           0
      2353 MEMB     22       CHL1     H16A     HGA2     0.900000E-01   1.00800           0
      2354 MEMB     22       CHL1     H16B     HGA2     0.900000E-01   1.00800           0
      2355 MEMB     22       CHL1     C17      CRL1    -0.900000E-01   12.0110           0
      2356 MEMB     22       CHL1     H17      HGA1     0.900000E-01   1.00800           0
      2357 MEMB     22       CHL1     C13      CRL1      0.00000       12.0110           0
      2358 MEMB     22       CHL1     C18      CTL3    -0.270000       12.0110           0
      2359 MEMB     22       CHL1     H18A     HAL3     0.900000E-01   1.00800           0
      2360 MEMB     22       CHL1     H18B     HAL3     0.900000E-01   1.00800           0
      2361 MEMB     22       CHL1     H18C     HAL3     0.900000E-01   1.00800           0
      2362 MEMB     22       CHL1     C12      CRL2    -0.180000       12.0110           0
      2363 MEMB     22       CHL1     H12A     HGA2     0.900000E-01   1.00800           0
      2364 MEMB     22       CHL1     H12B     HGA2     0.900000E-01   1.00800           0
      2365 MEMB     22       CHL1     C11      CRL2    -0.180000       12.0110           0
      2366 MEMB     22       CHL1     H11A     HGA2     0.900000E-01   1.00800           0
      2367 MEMB     22       CHL1     H11B     HGA2     0.900000E-01   1.00800           0
      2368 MEMB     22       CHL1     C9       CRL1    -0.900000E-01   12.0110           0
      2369 MEMB     22       CHL1     H9       HGA1     0.900000E-01   1.00800           0
      2370 MEMB     22       CHL1     C10      CRL1      0.00000       12.0110           0
      2371 MEMB     22       CHL1     C19      CTL3    -0.270000       12.0110           0
      2372 MEMB     22       CHL1     H19A     HAL3     0.900000E-01   1.00800           0
      2373 MEMB     22       CHL1     H19B     HAL3     0.900000E-01   1.00800           0
      2374 MEMB     22       CHL1     H19C     HAL3     0.900000E-01   1.00800           0
      2375 MEMB     22       CHL1     C1       CRL2    -0.180000       12.0110           0
      2376 MEMB     22       CHL1     H1A      HGA2     0.900000E-01   1.00800           0
      2377 MEMB     22       CHL1     H1B      HGA2     0.900000E-01   1.00800           0
      2378 MEMB     22       CHL1     C2       CRL2    -0.180000       12.0110           0
      2379 MEMB     22       CHL1     H2A      HGA2     0.900000E-01   1.00800           0
      2380 MEMB     22       CHL1     H2B      HGA2     0.900000E-01   1.00800           0
      2381 MEMB     22       CHL1     C20      CTL1    -0.900000E-01   12.0110           0
      2382 MEMB     22       CHL1     H20      HAL1     0.900000E-01   1.00800           0
      2383 MEMB     22       CHL1     C21      CTL3    -0.270000       12.0110           0
      2384 MEMB     22       CHL1     H21A     HAL3     0.900000E-01   1.00800           0
      2385 MEMB     22       CHL1     H21B     HAL3     0.900000E-01   1.00800           0
      2386 MEMB     22       CHL1     H21C     HAL3     0.900000E-01   1.00800           0
      2387 MEMB     22       CHL1     C22      CTL2    -0.180000       12.0110           0
      2388 MEMB     22       CHL1     H22A     HAL2     0.900000E-01   1.00800           0
      2389 MEMB     22       CHL1     H22B     HAL2     0.900000E-01   1.00800           0
      2390 MEMB     22       CHL1     C23      CTL2    -0.180000       12.0110           0
      2391 MEMB     22       CHL1     H23A     HAL2     0.900000E-01   1.00800           0
      2392 MEMB     22       CHL1     H23B     HAL2     0.900000E-01   1.00800           0
      2393 MEMB     22       CHL1     C24      CTL2    -0.180000       12.0110           0
      2394 MEMB     22       CHL1     H24A     HAL2     0.900000E-01   1.00800           0
      2395 MEMB     22       CHL1     H24B     HAL2     0.900000E-01   1.00800           0
      2396 MEMB     22       CHL1     C25      CTL1    -0.900000E-01   12.0110           0
      2397 MEMB     22       CHL1     H25      HAL1     0.900000E-01   1.00800           0
      2398 MEMB     22       CHL1     C26      CTL3    -0.270000       12.0110           0
      2399 MEMB     22       CHL1     H26A     HAL3     0.900000E-01   1.00800           0
      2400 MEMB     22       CHL1     H26B     HAL3     0.900000E-01   1.00800           0
      2401 MEMB     22       CHL1     H26C     HAL3     0.900000E-01   1.00800           0
      2402 MEMB     22       CHL1     C27      CTL3    -0.270000       12.0110           0
      2403 MEMB     22       CHL1     H27A     HAL3     0.900000E-01   1.00800           0
      2404 MEMB     22       CHL1     H27B     HAL3     0.900000E-01   1.00800           0
      2405 MEMB     22       CHL1     H27C     HAL3     0.900000E-01   1.00800           0
      2406 MEMB     23       SAPS     N        NH3L    -0.300000       14.0070           0
      2407 MEMB     23       SAPS     HN1      HCL      0.330000       1.00800           0
      2408 MEMB     23       SAPS     HN2      HCL      0.330000       1.00800           0
      2409 MEMB     23       SAPS     HN3      HCL      0.330000       1.00800           0
      2410 MEMB     23       SAPS     C12      CTL1     0.210000       12.0110           0
      2411 MEMB     23       SAPS     H12A     HBL      0.100000       1.00800           0
      2412 MEMB     23       SAPS     C13      CCL      0.340000       12.0110           0
      2413 MEMB     23       SAPS     O13A     OCL     -0.670000       15.9994           0
      2414 MEMB     23       SAPS     O13B     OCL     -0.670000       15.9994           0
      2415 MEMB     23       SAPS     C11      CTL2    -0.800000E-01   12.0110           0
      2416 MEMB     23       SAPS     H11A     HAL2     0.900000E-01   1.00800           0
      2417 MEMB     23       SAPS     H11B     HAL2     0.900000E-01   1.00800           0
      2418 MEMB     23       SAPS     P        PL        1.50000       30.9740           0
      2419 MEMB     23       SAPS     O13      O2L     -0.780000       15.9994           0
      2420 MEMB     23       SAPS     O14      O2L     -0.780000       15.9994           0
      2421 MEMB     23       SAPS     O12      OSLP    -0.570000       15.9994           0
      2422 MEMB     23       SAPS     O11      OSLP    -0.570000       15.9994           0
      2423 MEMB     23       SAPS     C1       CTL2    -0.800000E-01   12.0110           0
      2424 MEMB     23       SAPS     HA       HAL2     0.900000E-01   1.00800           0
      2425 MEMB     23       SAPS     HB       HAL2     0.900000E-01   1.00800           0
      2426 MEMB     23       SAPS     C2       CTL1     0.170000       12.0110           0
      2427 MEMB     23       SAPS     HS       HAL1     0.900000E-01   1.00800           0
      2428 MEMB     23       SAPS     O21      OSL     -0.490000       15.9994           0
      2429 MEMB     23       SAPS     C21      CL       0.900000       12.0110           0
      2430 MEMB     23       SAPS     O22      OBL     -0.630000       15.9994           0
      2431 MEMB     23       SAPS     C22      CTL2    -0.220000       12.0110           0
      2432 MEMB     23       SAPS     H2R      HAL2     0.900000E-01   1.00800           0
      2433 MEMB     23       SAPS     H2S      HAL2     0.900000E-01   1.00800           0
      2434 MEMB     23       SAPS     C3       CTL2     0.800000E-01   12.0110           0
      2435 MEMB     23       SAPS     HX       HAL2     0.900000E-01   1.00800           0
      2436 MEMB     23       SAPS     HY       HAL2     0.900000E-01   1.00800           0
      2437 MEMB     23       SAPS     O31      OSL     -0.490000       15.9994           0
      2438 MEMB     23       SAPS     C31      CL       0.900000       12.0110           0
      2439 MEMB     23       SAPS     O32      OBL     -0.630000       15.9994           0
      2440 MEMB     23       SAPS     C32      CTL2    -0.220000       12.0110           0
      2441 MEMB     23       SAPS     H2X      HAL2     0.900000E-01   1.00800           0
      2442 MEMB     23       SAPS     H2Y      HAL2     0.900000E-01   1.00800           0
      2443 MEMB     23       SAPS     C23      CTL2    -0.180000       12.0110           0
      2444 MEMB     23       SAPS     H3R      HAL2     0.900000E-01   1.00800           0
      2445 MEMB     23       SAPS     H3S      HAL2     0.900000E-01   1.00800           0
      2446 MEMB     23       SAPS     C24      CTL2    -0.180000       12.0110           0
      2447 MEMB     23       SAPS     H4R      HAL2     0.900000E-01   1.00800           0
      2448 MEMB     23       SAPS     H4S      HAL2     0.900000E-01   1.00800           0
      2449 MEMB     23       SAPS     C25      CEL1    -0.150000       12.0110           0
      2450 MEMB     23       SAPS     H5R      HEL1     0.150000       1.00800           0
      2451 MEMB     23       SAPS     C26      CEL1    -0.150000       12.0110           0
      2452 MEMB     23       SAPS     H6R      HEL1     0.150000       1.00800           0
      2453 MEMB     23       SAPS     C27      CTL2    -0.180000       12.0110           0
      2454 MEMB     23       SAPS     H7R      HAL2     0.900000E-01   1.00800           0
      2455 MEMB     23       SAPS     H7S      HAL2     0.900000E-01   1.00800           0
      2456 MEMB     23       SAPS     C28      CEL1    -0.150000       12.0110           0
      2457 MEMB     23       SAPS     H8R      HEL1     0.150000       1.00800           0
      2458 MEMB     23       SAPS     C29      CEL1    -0.150000       12.0110           0
      2459 MEMB     23       SAPS     H9R      HEL1     0.150000       1.00800           0
      2460 MEMB     23       SAPS     C210     CTL2    -0.180000       12.0110           0
      2461 MEMB     23       SAPS     H10R     HAL2     0.900000E-01   1.00800           0
      2462 MEMB     23       SAPS     H10S     HAL2     0.900000E-01   1.00800           0
      2463 MEMB     23       SAPS     C211     CEL1    -0.150000       12.0110           0
      2464 MEMB     23       SAPS     H11R     HEL1     0.150000       1.00800           0
      2465 MEMB     23       SAPS     C212     CEL1    -0.150000       12.0110           0
      2466 MEMB     23       SAPS     H12R     HEL1     0.150000       1.00800           0
      2467 MEMB     23       SAPS     C213     CTL2    -0.180000       12.0110           0
      2468 MEMB     23       SAPS     H13R     HAL2     0.900000E-01   1.00800           0
      2469 MEMB     23       SAPS     H13S     HAL2     0.900000E-01   1.00800           0
      2470 MEMB     23       SAPS     C214     CEL1    -0.150000       12.0110           0
      2471 MEMB     23       SAPS     H14R     HEL1     0.150000       1.00800           0
      2472 MEMB     23       SAPS     C215     CEL1    -0.150000       12.0110           0
      2473 MEMB     23       SAPS     H15R     HEL1     0.150000       1.00800           0
      2474 MEMB     23       SAPS     C216     CTL2    -0.180000       12.0110           0
      2475 MEMB     23       SAPS     H16R     HAL2     0.900000E-01   1.00800           0
      2476 MEMB     23       SAPS     H16S     HAL2     0.900000E-01   1.00800           0
      2477 MEMB     23       SAPS     C217     CTL2    -0.180000       12.0110           0
      2478 MEMB     23       SAPS     H17R     HAL2     0.900000E-01   1.00800           0
      2479 MEMB     23       SAPS     H17S     HAL2     0.900000E-01   1.00800           0
      2480 MEMB     23       SAPS     C218     CTL2    -0.180000       12.0110           0
      2481 MEMB     23       SAPS     H18R     HAL2     0.900000E-01   1.00800           0
      2482 MEMB     23       SAPS     H18S     HAL2     0.900000E-01   1.00800           0
      2483 MEMB     23       SAPS     C219     CTL2    -0.180000       12.0110           0
      2484 MEMB     23       SAPS     H19R     HAL2     0.900000E-01   1.00800           0
      2485 MEMB     23       SAPS     H19S     HAL2     0.900000E-01   1.00800           0
      2486 MEMB     23       SAPS     C220     CTL3    -0.270000       12.0110           0
      2487 MEMB     23       SAPS     H20R     HAL3     0.900000E-01   1.00800           0
      2488 MEMB     23       SAPS     H20S     HAL3     0.900000E-01   1.00800           0
      2489 MEMB     23       SAPS     H20T     HAL3     0.900000E-01   1.00800           0
      2490 MEMB     23       SAPS     C33      CTL2    -0.180000       12.0110           0
      2491 MEMB     23       SAPS     H3X      HAL2     0.900000E-01   1.00800           0
      2492 MEMB     23       SAPS     H3Y      HAL2     0.900000E-01   1.00800           0
      2493 MEMB     23       SAPS     C34      CTL2    -0.180000       12.0110           0
      2494 MEMB     23       SAPS     H4X      HAL2     0.900000E-01   1.00800           0
      2495 MEMB     23       SAPS     H4Y      HAL2     0.900000E-01   1.00800           0
      2496 MEMB     23       SAPS     C35      CTL2    -0.180000       12.0110           0
      2497 MEMB     23       SAPS     H5X      HAL2     0.900000E-01   1.00800           0
      2498 MEMB     23       SAPS     H5Y      HAL2     0.900000E-01   1.00800           0
      2499 MEMB     23       SAPS     C36      CTL2    -0.180000       12.0110           0
      2500 MEMB     23       SAPS     H6X      HAL2     0.900000E-01   1.00800           0
      2501 MEMB     23       SAPS     H6Y      HAL2     0.900000E-01   1.00800           0
      2502 MEMB     23       SAPS     C37      CTL2    -0.180000       12.0110           0
      2503 MEMB     23       SAPS     H7X      HAL2     0.900000E-01   1.00800           0
      2504 MEMB     23       SAPS     H7Y      HAL2     0.900000E-01   1.00800           0
      2505 MEMB     23       SAPS     C38      CTL2    -0.180000       12.0110           0
      2506 MEMB     23       SAPS     H8X      HAL2     0.900000E-01   1.00800           0
      2507 MEMB     23       SAPS     H8Y      HAL2     0.900000E-01   1.00800           0
      2508 MEMB     23       SAPS     C39      CTL2    -0.180000       12.0110           0
      2509 MEMB     23       SAPS     H9X      HAL2     0.900000E-01   1.00800           0
      2510 MEMB     23       SAPS     H9Y      HAL2     0.900000E-01   1.00800           0
      2511 MEMB     23       SAPS     C310     CTL2    -0.180000       12.0110           0
      2512 MEMB     23       SAPS     H10X     HAL2     0.900000E-01   1.00800           0
      2513 MEMB     23       SAPS     H10Y     HAL2     0.900000E-01   1.00800           0
      2514 MEMB     23       SAPS     C311     CTL2    -0.180000       12.0110           0
      2515 MEMB     23       SAPS     H11X     HAL2     0.900000E-01   1.00800           0
      2516 MEMB     23       SAPS     H11Y     HAL2     0.900000E-01   1.00800           0
      2517 MEMB     23       SAPS     C312     CTL2    -0.180000       12.0110           0
      2518 MEMB     23       SAPS     H12X     HAL2     0.900000E-01   1.00800           0
      2519 MEMB     23       SAPS     H12Y     HAL2     0.900000E-01   1.00800           0
      2520 MEMB     23       SAPS     C313     CTL2    -0.180000       12.0110           0
      2521 MEMB     23       SAPS     H13X     HAL2     0.900000E-01   1.00800           0
      2522 MEMB     23       SAPS     H13Y     HAL2     0.900000E-01   1.00800           0
      2523 MEMB     23       SAPS     C314     CTL2    -0.180000       12.0110           0
      2524 MEMB     23       SAPS     H14X     HAL2     0.900000E-01   1.00800           0
      2525 MEMB     23       SAPS     H14Y     HAL2     0.900000E-01   1.00800           0
      2526 MEMB     23       SAPS     C315     CTL2    -0.180000       12.0110           0
      2527 MEMB     23       SAPS     H15X     HAL2     0.900000E-01   1.00800           0
      2528 MEMB     23       SAPS     H15Y     HAL2     0.900000E-01   1.00800           0
      2529 MEMB     23       SAPS     C316     CTL2    -0.180000       12.0110           0
      2530 MEMB     23       SAPS     H16X     HAL2     0.900000E-01   1.00800           0
      2531 MEMB     23       SAPS     H16Y     HAL2     0.900000E-01   1.00800           0
      2532 MEMB     23       SAPS     C317     CTL2    -0.180000       12.0110           0
      2533 MEMB     23       SAPS     H17X     HAL2     0.900000E-01   1.00800           0
      2534 MEMB     23       SAPS     H17Y     HAL2     0.900000E-01   1.00800           0
      2535 MEMB     23       SAPS     C318     CTL3    -0.270000       12.0110           0
      2536 MEMB     23       SAPS     H18X     HAL3     0.900000E-01   1.00800           0
      2537 MEMB     23       SAPS     H18Y     HAL3     0.900000E-01   1.00800           0
      2538 MEMB     23       SAPS     H18Z     HAL3     0.900000E-01   1.00800           0
      2539 MEMB     24       CHL1     C3       CRL1     0.140000       12.0110           0
      2540 MEMB     24       CHL1     H3       HGA1     0.900000E-01   1.00800           0
      2541 MEMB     24       CHL1     O3       OHL     -0.660000       15.9994           0
      2542 MEMB     24       CHL1     H3'      HOL      0.430000       1.00800           0
      2543 MEMB     24       CHL1     C4       CRL2    -0.180000       12.0110           0
      2544 MEMB     24       CHL1     H4A      HGA2     0.900000E-01   1.00800           0
      2545 MEMB     24       CHL1     H4B      HGA2     0.900000E-01   1.00800           0
      2546 MEMB     24       CHL1     C5       CEL1      0.00000       12.0110           0
      2547 MEMB     24       CHL1     C6       CEL1    -0.150000       12.0110           0
      2548 MEMB     24       CHL1     H6       HEL1     0.150000       1.00800           0
      2549 MEMB     24       CHL1     C7       CRL2    -0.180000       12.0110           0
      2550 MEMB     24       CHL1     H7A      HGA2     0.900000E-01   1.00800           0
      2551 MEMB     24       CHL1     H7B      HGA2     0.900000E-01   1.00800           0
      2552 MEMB     24       CHL1     C8       CRL1    -0.900000E-01   12.0110           0
      2553 MEMB     24       CHL1     H8       HGA1     0.900000E-01   1.00800           0
      2554 MEMB     24       CHL1     C14      CRL1    -0.900000E-01   12.0110           0
      2555 MEMB     24       CHL1     H14      HGA1     0.900000E-01   1.00800           0
      2556 MEMB     24       CHL1     C15      CRL2    -0.180000       12.0110           0
      2557 MEMB     24       CHL1     H15A     HGA2     0.900000E-01   1.00800           0
      2558 MEMB     24       CHL1     H15B     HGA2     0.900000E-01   1.00800           0
      2559 MEMB     24       CHL1     C16      CRL2    -0.180000       12.0110           0
      2560 MEMB     24       CHL1     H16A     HGA2     0.900000E-01   1.00800           0
      2561 MEMB     24       CHL1     H16B     HGA2     0.900000E-01   1.00800           0
      2562 MEMB     24       CHL1     C17      CRL1    -0.900000E-01   12.0110           0
      2563 MEMB     24       CHL1     H17      HGA1     0.900000E-01   1.00800           0
      2564 MEMB     24       CHL1     C13      CRL1      0.00000       12.0110           0
      2565 MEMB     24       CHL1     C18      CTL3    -0.270000       12.0110           0
      2566 MEMB     24       CHL1     H18A     HAL3     0.900000E-01   1.00800           0
      2567 MEMB     24       CHL1     H18B     HAL3     0.900000E-01   1.00800           0
      2568 MEMB     24       CHL1     H18C     HAL3     0.900000E-01   1.00800           0
      2569 MEMB     24       CHL1     C12      CRL2    -0.180000       12.0110           0
      2570 MEMB     24       CHL1     H12A     HGA2     0.900000E-01   1.00800           0
      2571 MEMB     24       CHL1     H12B     HGA2     0.900000E-01   1.00800           0
      2572 MEMB     24       CHL1     C11      CRL2    -0.180000       12.0110           0
      2573 MEMB     24       CHL1     H11A     HGA2     0.900000E-01   1.00800           0
      2574 MEMB     24       CHL1     H11B     HGA2     0.900000E-01   1.00800           0
      2575 MEMB     24       CHL1     C9       CRL1    -0.900000E-01   12.0110           0
      2576 MEMB     24       CHL1     H9       HGA1     0.900000E-01   1.00800           0
      2577 MEMB     24       CHL1     C10      CRL1      0.00000       12.0110           0
      2578 MEMB     24       CHL1     C19      CTL3    -0.270000       12.0110           0
      2579 MEMB     24       CHL1     H19A     HAL3     0.900000E-01   1.00800           0
      2580 MEMB     24       CHL1     H19B     HAL3     0.900000E-01   1.00800           0
      2581 MEMB     24       CHL1     H19C     HAL3     0.900000E-01   1.00800           0
      2582 MEMB     24       CHL1     C1       CRL2    -0.180000       12.0110           0
      2583 MEMB     24       CHL1     H1A      HGA2     0.900000E-01   1.00800           0
      2584 MEMB     24       CHL1     H1B      HGA2     0.900000E-01   1.00800           0
      2585 MEMB     24       CHL1     C2       CRL2    -0.180000       12.0110           0
      2586 MEMB     24       CHL1     H2A      HGA2     0.900000E-01   1.00800           0
      2587 MEMB     24       CHL1     H2B      HGA2     0.900000E-01   1.00800           0
      2588 MEMB     24       CHL1     C20      CTL1    -0.900000E-01   12.0110           0
      2589 MEMB     24       CHL1     H20      HAL1     0.900000E-01   1.00800           0
      2590 MEMB     24       CHL1     C21      CTL3    -0.270000       12.0110           0
      2591 MEMB     24       CHL1     H21A     HAL3     0.900000E-01   1.00800           0
      2592 MEMB     24       CHL1     H21B     HAL3     0.900000E-01   1.00800           0
      2593 MEMB     24       CHL1     H21C     HAL3     0.900000E-01   1.00800           0
      2594 MEMB     24       CHL1     C22      CTL2    -0.180000       12.0110           0
      2595 MEMB     24       CHL1     H22A     HAL2     0.900000E-01   1.00800           0
      2596 MEMB     24       CHL1     H22B     HAL2     0.900000E-01   1.00800           0
      2597 MEMB     24       CHL1     C23      CTL2    -0.180000       12.0110           0
      2598 MEMB     24       CHL1     H23A     HAL2     0.900000E-01   1.00800           0
      2599 MEMB     24       CHL1     H23B     HAL2     0.900000E-01   1.00800           0
      2600 MEMB     24       CHL1     C24      CTL2    -0.180000       12.0110           0
      2601 MEMB     24       CHL1     H24A     HAL2     0.900000E-01   1.00800           0
      2602 MEMB     24       CHL1     H24B     HAL2     0.900000E-01   1.00800           0
      2603 MEMB     24       CHL1     C25      CTL1    -0.900000E-01   12.0110           0
      2604 MEMB     24       CHL1     H25      HAL1     0.900000E-01   1.00800           0
      2605 MEMB     24       CHL1     C26      CTL3    -0.270000       12.0110           0
      2606 MEMB     24       CHL1     H26A     HAL3     0.900000E-01   1.00800           0
      2607 MEMB     24       CHL1     H26B     HAL3     0.900000E-01   1.00800           0
      2608 MEMB     24       CHL1     H26C     HAL3     0.900000E-01   1.00800           0
      2609 MEMB     24       CHL1     C27      CTL3    -0.270000       12.0110           0
      2610 MEMB     24       CHL1     H27A     HAL3     0.900000E-01   1.00800           0
      2611 MEMB     24       CHL1     H27B     HAL3     0.900000E-01   1.00800           0
      2612 MEMB     24       CHL1     H27C     HAL3     0.900000E-01   1.00800           0
      2613 MEMB     25       SAPC     N        NTL     -0.600000       14.0070           0
      2614 MEMB     25       SAPC     C12      CTL2    -0.100000       12.0110           0
      2615 MEMB     25       SAPC     H12A     HL       0.250000       1.00800           0
      2616 MEMB     25       SAPC     H12B     HL       0.250000       1.00800           0
      2617 MEMB     25       SAPC     C13      CTL5    -0.350000       12.0110           0
      2618 MEMB     25       SAPC     H13A     HL       0.250000       1.00800           0
      2619 MEMB     25       SAPC     H13B     HL       0.250000       1.00800           0
      2620 MEMB     25       SAPC     H13C     HL       0.250000       1.00800           0
      2621 MEMB     25       SAPC     C14      CTL5    -0.350000       12.0110           0
      2622 MEMB     25       SAPC     H14A     HL       0.250000       1.00800           0
      2623 MEMB     25       SAPC     H14B     HL       0.250000       1.00800           0
      2624 MEMB     25       SAPC     H14C     HL       0.250000       1.00800           0
      2625 MEMB     25       SAPC     C15      CTL5    -0.350000       12.0110           0
      2626 MEMB     25       SAPC     H15A     HL       0.250000       1.00800           0
      2627 MEMB     25       SAPC     H15B     HL       0.250000       1.00800           0
      2628 MEMB     25       SAPC     H15C     HL       0.250000       1.00800           0
      2629 MEMB     25       SAPC     C11      CTL2    -0.800000E-01   12.0110           0
      2630 MEMB     25       SAPC     H11A     HAL2     0.900000E-01   1.00800           0
      2631 MEMB     25       SAPC     H11B     HAL2     0.900000E-01   1.00800           0
      2632 MEMB     25       SAPC     P        PL        1.50000       30.9740           0
      2633 MEMB     25       SAPC     O13      O2L     -0.780000       15.9994           0
      2634 MEMB     25       SAPC     O14      O2L     -0.780000       15.9994           0
      2635 MEMB     25       SAPC     O12      OSLP    -0.570000       15.9994           0
      2636 MEMB     25       SAPC     O11      OSLP    -0.570000       15.9994           0
      2637 MEMB     25       SAPC     C1       CTL2    -0.800000E-01   12.0110           0
      2638 MEMB     25       SAPC     HA       HAL2     0.900000E-01   1.00800           0
      2639 MEMB     25       SAPC     HB       HAL2     0.900000E-01   1.00800           0
      2640 MEMB     25       SAPC     C2       CTL1     0.170000       12.0110           0
      2641 MEMB     25       SAPC     HS       HAL1     0.900000E-01   1.00800           0
      2642 MEMB     25       SAPC     O21      OSL     -0.490000       15.9994           0
      2643 MEMB     25       SAPC     C21      CL       0.900000       12.0110           0
      2644 MEMB     25       SAPC     O22      OBL     -0.630000       15.9994           0
      2645 MEMB     25       SAPC     C22      CTL2    -0.220000       12.0110           0
      2646 MEMB     25       SAPC     H2R      HAL2     0.900000E-01   1.00800           0
      2647 MEMB     25       SAPC     H2S      HAL2     0.900000E-01   1.00800           0
      2648 MEMB     25       SAPC     C3       CTL2     0.800000E-01   12.0110           0
      2649 MEMB     25       SAPC     HX       HAL2     0.900000E-01   1.00800           0
      2650 MEMB     25       SAPC     HY       HAL2     0.900000E-01   1.00800           0
      2651 MEMB     25       SAPC     O31      OSL     -0.490000       15.9994           0
      2652 MEMB     25       SAPC     C31      CL       0.900000       12.0110           0
      2653 MEMB     25       SAPC     O32      OBL     -0.630000       15.9994           0
      2654 MEMB     25       SAPC     C32      CTL2    -0.220000       12.0110           0
      2655 MEMB     25       SAPC     H2X      HAL2     0.900000E-01   1.00800           0
      2656 MEMB     25       SAPC     H2Y      HAL2     0.900000E-01   1.00800           0
      2657 MEMB     25       SAPC     C23      CTL2    -0.180000       12.0110           0
      2658 MEMB     25       SAPC     H3R      HAL2     0.900000E-01   1.00800           0
      2659 MEMB     25       SAPC     H3S      HAL2     0.900000E-01   1.00800           0
      2660 MEMB     25       SAPC     C24      CTL2    -0.180000       12.0110           0
      2661 MEMB     25       SAPC     H4R      HAL2     0.900000E-01   1.00800           0
      2662 MEMB     25       SAPC     H4S      HAL2     0.900000E-01   1.00800           0
      2663 MEMB     25       SAPC     C25      CEL1    -0.150000       12.0110           0
      2664 MEMB     25       SAPC     H5R      HEL1     0.150000       1.00800           0
      2665 MEMB     25       SAPC     C26      CEL1    -0.150000       12.0110           0
      2666 MEMB     25       SAPC     H6R      HEL1     0.150000       1.00800           0
      2667 MEMB     25       SAPC     C27      CTL2    -0.180000       12.0110           0
      2668 MEMB     25       SAPC     H7R      HAL2     0.900000E-01   1.00800           0
      2669 MEMB     25       SAPC     H7S      HAL2     0.900000E-01   1.00800           0
      2670 MEMB     25       SAPC     C28      CEL1    -0.150000       12.0110           0
      2671 MEMB     25       SAPC     H8R      HEL1     0.150000       1.00800           0
      2672 MEMB     25       SAPC     C29      CEL1    -0.150000       12.0110           0
      2673 MEMB     25       SAPC     H9R      HEL1     0.150000       1.00800           0
      2674 MEMB     25       SAPC     C210     CTL2    -0.180000       12.0110           0
      2675 MEMB     25       SAPC     H10R     HAL2     0.900000E-01   1.00800           0
      2676 MEMB     25       SAPC     H10S     HAL2     0.900000E-01   1.00800           0
      2677 MEMB     25       SAPC     C211     CEL1    -0.150000       12.0110           0
      2678 MEMB     25       SAPC     H11R     HEL1     0.150000       1.00800           0
      2679 MEMB     25       SAPC     C212     CEL1    -0.150000       12.0110           0
      2680 MEMB     25       SAPC     H12R     HEL1     0.150000       1.00800           0
      2681 MEMB     25       SAPC     C213     CTL2    -0.180000       12.0110           0
      2682 MEMB     25       SAPC     H13R     HAL2     0.900000E-01   1.00800           0
      2683 MEMB     25       SAPC     H13S     HAL2     0.900000E-01   1.00800           0
      2684 MEMB     25       SAPC     C214     CEL1    -0.150000       12.0110           0
      2685 MEMB     25       SAPC     H14R     HEL1     0.150000       1.00800           0
      2686 MEMB     25       SAPC     C215     CEL1    -0.150000       12.0110           0
      2687 MEMB     25       SAPC     H15R     HEL1     0.150000       1.00800           0
      2688 MEMB     25       SAPC     C216     CTL2    -0.180000       12.0110           0
      2689 MEMB     25       SAPC     H16R     HAL2     0.900000E-01   1.00800           0
      2690 MEMB     25       SAPC     H16S     HAL2     0.900000E-01   1.00800           0
      2691 MEMB     25       SAPC     C217     CTL2    -0.180000       12.0110           0
      2692 MEMB     25       SAPC     H17R     HAL2     0.900000E-01   1.00800           0
      2693 MEMB     25       SAPC     H17S     HAL2     0.900000E-01   1.00800           0
      2694 MEMB     25       SAPC     C218     CTL2    -0.270000       12.0110           0
      2695 MEMB     25       SAPC     H18R     HAL2     0.900000E-01   1.00800           0
      2696 MEMB     25       SAPC     H18S     HAL2     0.900000E-01   1.00800           0
      2697 MEMB     25       SAPC     C219     CTL2    -0.180000       12.0110           0
      2698 MEMB     25       SAPC     H19R     HAL2     0.900000E-01   1.00800           0
      2699 MEMB     25       SAPC     H19S     HAL2     0.900000E-01   1.00800           0
      2700 MEMB     25       SAPC     C220     CTL3    -0.180000       12.0110           0
      2701 MEMB     25       SAPC     H20R     HAL3     0.900000E-01   1.00800           0
      2702 MEMB     25       SAPC     H20S     HAL3     0.900000E-01   1.00800           0
      2703 MEMB     25       SAPC     H20T     HAL3     0.900000E-01   1.00800           0
      2704 MEMB     25       SAPC     C33      CTL2    -0.180000       12.0110           0
      2705 MEMB     25       SAPC     H3X      HAL2     0.900000E-01   1.00800           0
      2706 MEMB     25       SAPC     H3Y      HAL2     0.900000E-01   1.00800           0
      2707 MEMB     25       SAPC     C34      CTL2    -0.180000       12.0110           0
      2708 MEMB     25       SAPC     H4X      HAL2     0.900000E-01   1.00800           0
      2709 MEMB     25       SAPC     H4Y      HAL2     0.900000E-01   1.00800           0
      2710 MEMB     25       SAPC     C35      CTL2    -0.180000       12.0110           0
      2711 MEMB     25       SAPC     H5X      HAL2     0.900000E-01   1.00800           0
      2712 MEMB     25       SAPC     H5Y      HAL2     0.900000E-01   1.00800           0
      2713 MEMB     25       SAPC     C36      CTL2    -0.180000       12.0110           0
      2714 MEMB     25       SAPC     H6X      HAL2     0.900000E-01   1.00800           0
      2715 MEMB     25       SAPC     H6Y      HAL2     0.900000E-01   1.00800           0
      2716 MEMB     25       SAPC     C37      CTL2    -0.180000       12.0110           0
      2717 MEMB     25       SAPC     H7X      HAL2     0.900000E-01   1.00800           0
      2718 MEMB     25       SAPC     H7Y      HAL2     0.900000E-01   1.00800           0
      2719 MEMB     25       SAPC     C38      CTL2    -0.180000       12.0110           0
      2720 MEMB     25       SAPC     H8X      HAL2     0.900000E-01   1.00800           0
      2721 MEMB     25       SAPC     H8Y      HAL2     0.900000E-01   1.00800           0
      2722 MEMB     25       SAPC     C39      CTL2    -0.180000       12.0110           0
      2723 MEMB     25       SAPC     H9X      HAL2     0.900000E-01   1.00800           0
      2724 MEMB     25       SAPC     H9Y      HAL2     0.900000E-01   1.00800           0
      2725 MEMB     25       SAPC     C310     CTL2    -0.180000       12.0110           0
      2726 MEMB     25       SAPC     H10X     HAL2     0.900000E-01   1.00800           0
      2727 MEMB     25       SAPC     H10Y     HAL2     0.900000E-01   1.00800           0
      2728 MEMB     25       SAPC     C311     CTL2    -0.180000       12.0110           0
      2729 MEMB     25       SAPC     H11X     HAL2     0.900000E-01   1.00800           0
      2730 MEMB     25       SAPC     H11Y     HAL2     0.900000E-01   1.00800           0
      2731 MEMB     25       SAPC     C312     CTL2    -0.180000       12.0110           0
      2732 MEMB     25       SAPC     H12X     HAL2     0.900000E-01   1.00800           0
      2733 MEMB     25       SAPC     H12Y     HAL2     0.900000E-01   1.00800           0
      2734 MEMB     25       SAPC     C313     CTL2    -0.180000       12.0110           0
      2735 MEMB     25       SAPC     H13X     HAL2     0.900000E-01   1.00800           0
      2736 MEMB     25       SAPC     H13Y     HAL2     0.900000E-01   1.00800           0
      2737 MEMB     25       SAPC     C314     CTL2    -0.180000       12.0110           0
      2738 MEMB     25       SAPC     H14X     HAL2     0.900000E-01   1.00800           0
      2739 MEMB     25       SAPC     H14Y     HAL2     0.900000E-01   1.00800           0
      2740 MEMB     25       SAPC     C315     CTL2    -0.180000       12.0110           0
      2741 MEMB     25       SAPC     H15X     HAL2     0.900000E-01   1.00800           0
      2742 MEMB     25       SAPC     H15Y     HAL2     0.900000E-01   1.00800           0
      2743 MEMB     25       SAPC     C316     CTL2    -0.180000       12.0110           0
      2744 MEMB     25       SAPC     H16X     HAL2     0.900000E-01   1.00800           0
      2745 MEMB     25       SAPC     H16Y     HAL2     0.900000E-01   1.00800           0
      2746 MEMB     25       SAPC     C317     CTL2    -0.180000       12.0110           0
      2747 MEMB     25       SAPC     H17X     HAL2     0.900000E-01   1.00800           0
      2748 MEMB     25       SAPC     H17Y     HAL2     0.900000E-01   1.00800           0
      2749 MEMB     25       SAPC     C318     CTL3    -0.270000       12.0110           0
      2750 MEMB     25       SAPC     H18X     HAL3     0.900000E-01   1.00800           0
      2751 MEMB     25       SAPC     H18Y     HAL3     0.900000E-01   1.00800           0
      2752 MEMB     25       SAPC     H18Z     HAL3     0.900000E-01   1.00800           0
      2753 MEMB     26       CHL1     C3       CRL1     0.140000       12.0110           0
      2754 MEMB     26       CHL1     H3       HGA1     0.900000E-01   1.00800           0
      2755 MEMB     26       CHL1     O3       OHL     -0.660000       15.9994           0
      2756 MEMB     26       CHL1     H3'      HOL      0.430000       1.00800           0
      2757 MEMB     26       CHL1     C4       CRL2    -0.180000       12.0110           0
      2758 MEMB     26       CHL1     H4A      HGA2     0.900000E-01   1.00800           0
      2759 MEMB     26       CHL1     H4B      HGA2     0.900000E-01   1.00800           0
      2760 MEMB     26       CHL1     C5       CEL1      0.00000       12.0110           0
      2761 MEMB     26       CHL1     C6       CEL1    -0.150000       12.0110           0
      2762 MEMB     26       CHL1     H6       HEL1     0.150000       1.00800           0
      2763 MEMB     26       CHL1     C7       CRL2    -0.180000       12.0110           0
      2764 MEMB     26       CHL1     H7A      HGA2     0.900000E-01   1.00800           0
      2765 MEMB     26       CHL1     H7B      HGA2     0.900000E-01   1.00800           0
      2766 MEMB     26       CHL1     C8       CRL1    -0.900000E-01   12.0110           0
      2767 MEMB     26       CHL1     H8       HGA1     0.900000E-01   1.00800           0
      2768 MEMB     26       CHL1     C14      CRL1    -0.900000E-01   12.0110           0
      2769 MEMB     26       CHL1     H14      HGA1     0.900000E-01   1.00800           0
      2770 MEMB     26       CHL1     C15      CRL2    -0.180000       12.0110           0
      2771 MEMB     26       CHL1     H15A     HGA2     0.900000E-01   1.00800           0
      2772 MEMB     26       CHL1     H15B     HGA2     0.900000E-01   1.00800           0
      2773 MEMB     26       CHL1     C16      CRL2    -0.180000       12.0110           0
      2774 MEMB     26       CHL1     H16A     HGA2     0.900000E-01   1.00800           0
      2775 MEMB     26       CHL1     H16B     HGA2     0.900000E-01   1.00800           0
      2776 MEMB     26       CHL1     C17      CRL1    -0.900000E-01   12.0110           0
      2777 MEMB     26       CHL1     H17      HGA1     0.900000E-01   1.00800           0
      2778 MEMB     26       CHL1     C13      CRL1      0.00000       12.0110           0
      2779 MEMB     26       CHL1     C18      CTL3    -0.270000       12.0110           0
      2780 MEMB     26       CHL1     H18A     HAL3     0.900000E-01   1.00800           0
      2781 MEMB     26       CHL1     H18B     HAL3     0.900000E-01   1.00800           0
      2782 MEMB     26       CHL1     H18C     HAL3     0.900000E-01   1.00800           0
      2783 MEMB     26       CHL1     C12      CRL2    -0.180000       12.0110           0
      2784 MEMB     26       CHL1     H12A     HGA2     0.900000E-01   1.00800           0
      2785 MEMB     26       CHL1     H12B     HGA2     0.900000E-01   1.00800           0
      2786 MEMB     26       CHL1     C11      CRL2    -0.180000       12.0110           0
      2787 MEMB     26       CHL1     H11A     HGA2     0.900000E-01   1.00800           0
      2788 MEMB     26       CHL1     H11B     HGA2     0.900000E-01   1.00800           0
      2789 MEMB     26       CHL1     C9       CRL1    -0.900000E-01   12.0110           0
      2790 MEMB     26       CHL1     H9       HGA1     0.900000E-01   1.00800           0
      2791 MEMB     26       CHL1     C10      CRL1      0.00000       12.0110           0
      2792 MEMB     26       CHL1     C19      CTL3    -0.270000       12.0110           0
      2793 MEMB     26       CHL1     H19A     HAL3     0.900000E-01   1.00800           0
      2794 MEMB     26       CHL1     H19B     HAL3     0.900000E-01   1.00800           0
      2795 MEMB     26       CHL1     H19C     HAL3     0.900000E-01   1.00800           0
      2796 MEMB     26       CHL1     C1       CRL2    -0.180000       12.0110           0
      2797 MEMB     26       CHL1     H1A      HGA2     0.900000E-01   1.00800           0
      2798 MEMB     26       CHL1     H1B      HGA2     0.900000E-01   1.00800           0
      2799 MEMB     26       CHL1     C2       CRL2    -0.180000       12.0110           0
      2800 MEMB     26       CHL1     H2A      HGA2     0.900000E-01   1.00800           0
      2801 MEMB     26       CHL1     H2B      HGA2     0.900000E-01   1.00800           0
      2802 MEMB     26       CHL1     C20      CTL1    -0.900000E-01   12.0110           0
      2803 MEMB     26       CHL1     H20      HAL1     0.900000E-01   1.00800           0
      2804 MEMB     26       CHL1     C21      CTL3    -0.270000       12.0110           0
      2805 MEMB     26       CHL1     H21A     HAL3     0.900000E-01   1.00800           0
      2806 MEMB     26       CHL1     H21B     HAL3     0.900000E-01   1.00800           0
      2807 MEMB     26       CHL1     H21C     HAL3     0.900000E-01   1.00800           0
      2808 MEMB     26       CHL1     C22      CTL2    -0.180000       12.0110           0
      2809 MEMB     26       CHL1     H22A     HAL2     0.900000E-01   1.00800           0
      2810 MEMB     26       CHL1     H22B     HAL2     0.900000E-01   1.00800           0
      2811 MEMB     26       CHL1     C23      CTL2    -0.180000       12.0110           0
      2812 MEMB     26       CHL1     H23A     HAL2     0.900000E-01   1.00800           0
      2813 MEMB     26       CHL1     H23B     HAL2     0.900000E-01   1.00800           0
      2814 MEMB     26       CHL1     C24      CTL2    -0.180000       12.0110           0
      2815 MEMB     26       CHL1     H24A     HAL2     0.900000E-01   1.00800           0
      2816 MEMB     26       CHL1     H24B     HAL2     0.900000E-01   1.00800           0
      2817 MEMB     26       CHL1     C25      CTL1    -0.900000E-01   12.0110           0
      2818 MEMB     26       CHL1     H25      HAL1     0.900000E-01   1.00800           0
      2819 MEMB     26       CHL1     C26      CTL3    -0.270000       12.0110           0
      2820 MEMB     26       CHL1     H26A     HAL3     0.900000E-01   1.00800           0
      2821 MEMB     26       CHL1     H26B     HAL3     0.900000E-01   1.00800           0
      2822 MEMB     26       CHL1     H26C     HAL3     0.900000E-01   1.00800           0
      2823 MEMB     26       CHL1     C27      CTL3    -0.270000       12.0110           0
      2824 MEMB     26       CHL1     H27A     HAL3     0.900000E-01   1.00800           0
      2825 MEMB     26       CHL1     H27B     HAL3     0.900000E-01   1.00800           0
      2826 MEMB     26       CHL1     H27C     HAL3     0.900000E-01   1.00800           0
      2827 MEMB     27       SAPI     C12      CC3161   0.140000       12.0110           0
      2828 MEMB     27       SAPI     H2       HCA1     0.900000E-01   1.00800           0
      2829 MEMB     27       SAPI     O2       OC311   -0.650000       15.9994           0
      2830 MEMB     27       SAPI     HO2      HCP1     0.420000       1.00800           0
      2831 MEMB     27       SAPI     C13      CC3161   0.140000       12.0110           0
      2832 MEMB     27       SAPI     H3       HCA1     0.900000E-01   1.00800           0
      2833 MEMB     27       SAPI     O3       OC311   -0.650000       15.9994           0
      2834 MEMB     27       SAPI     HO3      HCP1     0.420000       1.00800           0
      2835 MEMB     27       SAPI     C14      CC3161   0.140000       12.0110           0
      2836 MEMB     27       SAPI     H4       HCA1     0.900000E-01   1.00800           0
      2837 MEMB     27       SAPI     O4       OC311   -0.650000       15.9994           0
      2838 MEMB     27       SAPI     HO4      HCP1     0.420000       1.00800           0
      2839 MEMB     27       SAPI     C15      CC3161   0.140000       12.0110           0
      2840 MEMB     27       SAPI     H5       HCA1     0.900000E-01   1.00800           0
      2841 MEMB     27       SAPI     O5       OC311   -0.650000       15.9994           0
      2842 MEMB     27       SAPI     HO5      HCP1     0.420000       1.00800           0
      2843 MEMB     27       SAPI     C16      CC3161   0.140000       12.0110           0
      2844 MEMB     27       SAPI     H6       HCA1     0.900000E-01   1.00800           0
      2845 MEMB     27       SAPI     O6       OC311   -0.650000       15.9994           0
      2846 MEMB     27       SAPI     HO6      HCP1     0.420000       1.00800           0
      2847 MEMB     27       SAPI     C11      CC3161  -0.800000E-01   12.0110           0
      2848 MEMB     27       SAPI     H1       HCA1     0.900000E-01   1.00800           0
      2849 MEMB     27       SAPI     P        PL        1.59000       30.9740           0
      2850 MEMB     27       SAPI     O13      O2L     -0.780000       15.9994           0
      2851 MEMB     27       SAPI     O14      O2L     -0.780000       15.9994           0
      2852 MEMB     27       SAPI     O12      OC30P   -0.570000       15.9994           0
      2853 MEMB     27       SAPI     O11      OSLP    -0.570000       15.9994           0
      2854 MEMB     27       SAPI     C1       CTL2    -0.800000E-01   12.0110           0
      2855 MEMB     27       SAPI     HA       HAL2     0.900000E-01   1.00800           0
      2856 MEMB     27       SAPI     HB       HAL2     0.900000E-01   1.00800           0
      2857 MEMB     27       SAPI     C2       CTL1     0.170000       12.0110           0
      2858 MEMB     27       SAPI     HS       HAL1     0.900000E-01   1.00800           0
      2859 MEMB     27       SAPI     O21      OSL     -0.490000       15.9994           0
      2860 MEMB     27       SAPI     C21      CL       0.900000       12.0110           0
      2861 MEMB     27       SAPI     O22      OBL     -0.630000       15.9994           0
      2862 MEMB     27       SAPI     C22      CTL2    -0.220000       12.0110           0
      2863 MEMB     27       SAPI     H2R      HAL2     0.900000E-01   1.00800           0
      2864 MEMB     27       SAPI     H2S      HAL2     0.900000E-01   1.00800           0
      2865 MEMB     27       SAPI     C3       CTL2     0.800000E-01   12.0110           0
      2866 MEMB     27       SAPI     HX       HAL2     0.900000E-01   1.00800           0
      2867 MEMB     27       SAPI     HY       HAL2     0.900000E-01   1.00800           0
      2868 MEMB     27       SAPI     O31      OSL     -0.490000       15.9994           0
      2869 MEMB     27       SAPI     C31      CL       0.900000       12.0110           0
      2870 MEMB     27       SAPI     O32      OBL     -0.630000       15.9994           0
      2871 MEMB     27       SAPI     C32      CTL2    -0.220000       12.0110           0
      2872 MEMB     27       SAPI     H2X      HAL2     0.900000E-01   1.00800           0
      2873 MEMB     27       SAPI     H2Y      HAL2     0.900000E-01   1.00800           0
      2874 MEMB     27       SAPI     C23      CTL2    -0.180000       12.0110           0
      2875 MEMB     27       SAPI     H3R      HAL2     0.900000E-01   1.00800           0
      2876 MEMB     27       SAPI     H3S      HAL2     0.900000E-01   1.00800           0
      2877 MEMB     27       SAPI     C24      CTL2    -0.180000       12.0110           0
      2878 MEMB     27       SAPI     H4R      HAL2     0.900000E-01   1.00800           0
      2879 MEMB     27       SAPI     H4S      HAL2     0.900000E-01   1.00800           0
      2880 MEMB     27       SAPI     C25      CEL1    -0.150000       12.0110           0
      2881 MEMB     27       SAPI     H5R      HEL1     0.150000       1.00800           0
      2882 MEMB     27       SAPI     C26      CEL1    -0.150000       12.0110           0
      2883 MEMB     27       SAPI     H6R      HEL1     0.150000       1.00800           0
      2884 MEMB     27       SAPI     C27      CTL2    -0.180000       12.0110           0
      2885 MEMB     27       SAPI     H7R      HAL2     0.900000E-01   1.00800           0
      2886 MEMB     27       SAPI     H7S      HAL2     0.900000E-01   1.00800           0
      2887 MEMB     27       SAPI     C28      CEL1    -0.150000       12.0110           0
      2888 MEMB     27       SAPI     H8R      HEL1     0.150000       1.00800           0
      2889 MEMB     27       SAPI     C29      CEL1    -0.150000       12.0110           0
      2890 MEMB     27       SAPI     H9R      HEL1     0.150000       1.00800           0
      2891 MEMB     27       SAPI     C210     CTL2    -0.180000       12.0110           0
      2892 MEMB     27       SAPI     H10R     HAL2     0.900000E-01   1.00800           0
      2893 MEMB     27       SAPI     H10S     HAL2     0.900000E-01   1.00800           0
      2894 MEMB     27       SAPI     C211     CEL1    -0.150000       12.0110           0
      2895 MEMB     27       SAPI     H11R     HEL1     0.150000       1.00800           0
      2896 MEMB     27       SAPI     C212     CEL1    -0.150000       12.0110           0
      2897 MEMB     27       SAPI     H12R     HEL1     0.150000       1.00800           0
      2898 MEMB     27       SAPI     C213     CTL2    -0.180000       12.0110           0
      2899 MEMB     27       SAPI     H13R     HAL2     0.900000E-01   1.00800           0
      2900 MEMB     27       SAPI     H13S     HAL2     0.900000E-01   1.00800           0
      2901 MEMB     27       SAPI     C214     CEL1    -0.150000       12.0110           0
      2902 MEMB     27       SAPI     H14R     HEL1     0.150000       1.00800           0
      2903 MEMB     27       SAPI     C215     CEL1    -0.150000       12.0110           0
      2904 MEMB     27       SAPI     H15R     HEL1     0.150000       1.00800           0
      2905 MEMB     27       SAPI     C216     CTL2    -0.180000       12.0110           0
      2906 MEMB     27       SAPI     H16R     HAL2     0.900000E-01   1.00800           0
      2907 MEMB     27       SAPI     H16S     HAL2     0.900000E-01   1.00800           0
      2908 MEMB     27       SAPI     C217     CTL2    -0.180000       12.0110           0
      2909 MEMB     27       SAPI     H17R     HAL2     0.900000E-01   1.00800           0
      2910 MEMB     27       SAPI     H17S     HAL2     0.900000E-01   1.00800           0
      2911 MEMB     27       SAPI     C218     CTL2    -0.180000       12.0110           0
      2912 MEMB     27       SAPI     H18R     HAL2     0.900000E-01   1.00800           0
      2913 MEMB     27       SAPI     H18S     HAL2     0.900000E-01   1.00800           0
      2914 MEMB     27       SAPI     C219     CTL2    -0.180000       12.0110           0
      2915 MEMB     27       SAPI     H19R     HAL2     0.900000E-01   1.00800           0
      2916 MEMB     27       SAPI     H19S     HAL2     0.900000E-01   1.00800           0
      2917 MEMB     27       SAPI     C220     CTL3    -0.270000       12.0110           0
      2918 MEMB     27       SAPI     H20R     HAL3     0.900000E-01   1.00800           0
      2919 MEMB     27       SAPI     H20S     HAL3     0.900000E-01   1.00800           0
      2920 MEMB     27       SAPI     H20T     HAL3     0.900000E-01   1.00800           0
      2921 MEMB     27       SAPI     C33      CTL2    -0.180000       12.0110           0
      2922 MEMB     27       SAPI     H3X      HAL2     0.900000E-01   1.00800           0
      2923 MEMB     27       SAPI     H3Y      HAL2     0.900000E-01   1.00800           0
      2924 MEMB     27       SAPI     C34      CTL2    -0.180000       12.0110           0
      2925 MEMB     27       SAPI     H4X      HAL2     0.900000E-01   1.00800           0
      2926 MEMB     27       SAPI     H4Y      HAL2     0.900000E-01   1.00800           0
      2927 MEMB     27       SAPI     C35      CTL2    -0.180000       12.0110           0
      2928 MEMB     27       SAPI     H5X      HAL2     0.900000E-01   1.00800           0
      2929 MEMB     27       SAPI     H5Y      HAL2     0.900000E-01   1.00800           0
      2930 MEMB     27       SAPI     C36      CTL2    -0.180000       12.0110           0
      2931 MEMB     27       SAPI     H6X      HAL2     0.900000E-01   1.00800           0
      2932 MEMB     27       SAPI     H6Y      HAL2     0.900000E-01   1.00800           0
      2933 MEMB     27       SAPI     C37      CTL2    -0.180000       12.0110           0
      2934 MEMB     27       SAPI     H7X      HAL2     0.900000E-01   1.00800           0
      2935 MEMB     27       SAPI     H7Y      HAL2     0.900000E-01   1.00800           0
      2936 MEMB     27       SAPI     C38      CTL2    -0.180000       12.0110           0
      2937 MEMB     27       SAPI     H8X      HAL2     0.900000E-01   1.00800           0
      2938 MEMB     27       SAPI     H8Y      HAL2     0.900000E-01   1.00800           0
      2939 MEMB     27       SAPI     C39      CTL2    -0.180000       12.0110           0
      2940 MEMB     27       SAPI     H9X      HAL2     0.900000E-01   1.00800           0
      2941 MEMB     27       SAPI     H9Y      HAL2     0.900000E-01   1.00800           0
      2942 MEMB     27       SAPI     C310     CTL2    -0.180000       12.0110           0
      2943 MEMB     27       SAPI     H10X     HAL2     0.900000E-01   1.00800           0
      2944 MEMB     27       SAPI     H10Y     HAL2     0.900000E-01   1.00800           0
      2945 MEMB     27       SAPI     C311     CTL2    -0.180000       12.0110           0
      2946 MEMB     27       SAPI     H11X     HAL2     0.900000E-01   1.00800           0
      2947 MEMB     27       SAPI     H11Y     HAL2     0.900000E-01   1.00800           0
      2948 MEMB     27       SAPI     C312     CTL2    -0.180000       12.0110           0
      2949 MEMB     27       SAPI     H12X     HAL2     0.900000E-01   1.00800           0
      2950 MEMB     27       SAPI     H12Y     HAL2     0.900000E-01   1.00800           0
      2951 MEMB     27       SAPI     C313     CTL2    -0.180000       12.0110           0
      2952 MEMB     27       SAPI     H13X     HAL2     0.900000E-01   1.00800           0
      2953 MEMB     27       SAPI     H13Y     HAL2     0.900000E-01   1.00800           0
      2954 MEMB     27       SAPI     C314     CTL2    -0.180000       12.0110           0
      2955 MEMB     27       SAPI     H14X     HAL2     0.900000E-01   1.00800           0
      2956 MEMB     27       SAPI     H14Y     HAL2     0.900000E-01   1.00800           0
      2957 MEMB     27       SAPI     C315     CTL2    -0.180000       12.0110           0
      2958 MEMB     27       SAPI     H15X     HAL2     0.900000E-01   1.00800           0
      2959 MEMB     27       SAPI     H15Y     HAL2     0.900000E-01   1.00800           0
      2960 MEMB     27       SAPI     C316     CTL2    -0.180000       12.0110           0
      2961 MEMB     27       SAPI     H16X     HAL2     0.900000E-01   1.00800           0
      2962 MEMB     27       SAPI     H16Y     HAL2     0.900000E-01   1.00800           0
      2963 MEMB     27       SAPI     C317     CTL2    -0.180000       12.0110           0
      2964 MEMB     27       SAPI     H17X     HAL2     0.900000E-01   1.00800           0
      2965 MEMB     27       SAPI     H17Y     HAL2     0.900000E-01   1.00800           0
      2966 MEMB     27       SAPI     C318     CTL3    -0.270000       12.0110           0
      2967 MEMB     27       SAPI     H18X     HAL3     0.900000E-01   1.00800           0
      2968 MEMB     27       SAPI     H18Y     HAL3     0.900000E-01   1.00800           0
      2969 MEMB     27       SAPI     H18Z     HAL3     0.900000E-01   1.00800           0
      2970 MEMB     28       CHL1     C3       CRL1     0.140000       12.0110           0
      2971 MEMB     28       CHL1     H3       HGA1     0.900000E-01   1.00800           0
      2972 MEMB     28       CHL1     O3       OHL     -0.660000       15.9994           0
      2973 MEMB     28       CHL1     H3'      HOL      0.430000       1.00800           0
      2974 MEMB     28       CHL1     C4       CRL2    -0.180000       12.0110           0
      2975 MEMB     28       CHL1     H4A      HGA2     0.900000E-01   1.00800           0
      2976 MEMB     28       CHL1     H4B      HGA2     0.900000E-01   1.00800           0
      2977 MEMB     28       CHL1     C5       CEL1      0.00000       12.0110           0
      2978 MEMB     28       CHL1     C6       CEL1    -0.150000       12.0110           0
      2979 MEMB     28       CHL1     H6       HEL1     0.150000       1.00800           0
      2980 MEMB     28       CHL1     C7       CRL2    -0.180000       12.0110           0
      2981 MEMB     28       CHL1     H7A      HGA2     0.900000E-01   1.00800           0
      2982 MEMB     28       CHL1     H7B      HGA2     0.900000E-01   1.00800           0
      2983 MEMB     28       CHL1     C8       CRL1    -0.900000E-01   12.0110           0
      2984 MEMB     28       CHL1     H8       HGA1     0.900000E-01   1.00800           0
      2985 MEMB     28       CHL1     C14      CRL1    -0.900000E-01   12.0110           0
      2986 MEMB     28       CHL1     H14      HGA1     0.900000E-01   1.00800           0
      2987 MEMB     28       CHL1     C15      CRL2    -0.180000       12.0110           0
      2988 MEMB     28       CHL1     H15A     HGA2     0.900000E-01   1.00800           0
      2989 MEMB     28       CHL1     H15B     HGA2     0.900000E-01   1.00800           0
      2990 MEMB     28       CHL1     C16      CRL2    -0.180000       12.0110           0
      2991 MEMB     28       CHL1     H16A     HGA2     0.900000E-01   1.00800           0
      2992 MEMB     28       CHL1     H16B     HGA2     0.900000E-01   1.00800           0
      2993 MEMB     28       CHL1     C17      CRL1    -0.900000E-01   12.0110           0
      2994 MEMB     28       CHL1     H17      HGA1     0.900000E-01   1.00800           0
      2995 MEMB     28       CHL1     C13      CRL1      0.00000       12.0110           0
      2996 MEMB     28       CHL1     C18      CTL3    -0.270000       12.0110           0
      2997 MEMB     28       CHL1     H18A     HAL3     0.900000E-01   1.00800           0
      2998 MEMB     28       CHL1     H18B     HAL3     0.900000E-01   1.00800           0
      2999 MEMB     28       CHL1     H18C     HAL3     0.900000E-01   1.00800           0
      3000 MEMB     28       CHL1     C12      CRL2    -0.180000       12.0110           0
      3001 MEMB     28       CHL1     H12A     HGA2     0.900000E-01   1.00800           0
      3002 MEMB     28       CHL1     H12B     HGA2     0.900000E-01   1.00800           0
      3003 MEMB     28       CHL1     C11      CRL2    -0.180000       12.0110           0
      3004 MEMB     28       CHL1     H11A     HGA2     0.900000E-01   1.00800           0
      3005 MEMB     28       CHL1     H11B     HGA2     0.900000E-01   1.00800           0
      3006 MEMB     28       CHL1     C9       CRL1    -0.900000E-01   12.0110           0
      3007 MEMB     28       CHL1     H9       HGA1     0.900000E-01   1.00800           0
      3008 MEMB     28       CHL1     C10      CRL1      0.00000       12.0110           0
      3009 MEMB     28       CHL1     C19      CTL3    -0.270000       12.0110           0
      3010 MEMB     28       CHL1     H19A     HAL3     0.900000E-01   1.00800           0
      3011 MEMB     28       CHL1     H19B     HAL3     0.900000E-01   1.00800           0
      3012 MEMB     28       CHL1     H19C     HAL3     0.900000E-01   1.00800           0
      3013 MEMB     28       CHL1     C1       CRL2    -0.180000       12.0110           0
      3014 MEMB     28       CHL1     H1A      HGA2     0.900000E-01   1.00800           0
      3015 MEMB     28       CHL1     H1B      HGA2     0.900000E-01   1.00800           0
      3016 MEMB     28       CHL1     C2       CRL2    -0.180000       12.0110           0
      3017 MEMB     28       CHL1     H2A      HGA2     0.900000E-01   1.00800           0
      3018 MEMB     28       CHL1     H2B      HGA2     0.900000E-01   1.00800           0
      3019 MEMB     28       CHL1     C20      CTL1    -0.900000E-01   12.0110           0
      3020 MEMB     28       CHL1     H20      HAL1     0.900000E-01   1.00800           0
      3021 MEMB     28       CHL1     C21      CTL3    -0.270000       12.0110           0
      3022 MEMB     28       CHL1     H21A     HAL3     0.900000E-01   1.00800           0
      3023 MEMB     28       CHL1     H21B     HAL3     0.900000E-01   1.00800           0
      3024 MEMB     28       CHL1     H21C     HAL3     0.900000E-01   1.00800           0
      3025 MEMB     28       CHL1     C22      CTL2    -0.180000       12.0110           0
      3026 MEMB     28       CHL1     H22A     HAL2     0.900000E-01   1.00800           0
      3027 MEMB     28       CHL1     H22B     HAL2     0.900000E-01   1.00800           0
      3028 MEMB     28       CHL1     C23      CTL2    -0.180000       12.0110           0
      3029 MEMB     28       CHL1     H23A     HAL2     0.900000E-01   1.00800           0
      3030 MEMB     28       CHL1     H23B     HAL2     0.900000E-01   1.00800           0
      3031 MEMB     28       CHL1     C24      CTL2    -0.180000       12.0110           0
      3032 MEMB     28       CHL1     H24A     HAL2     0.900000E-01   1.00800           0
      3033 MEMB     28       CHL1     H24B     HAL2     0.900000E-01   1.00800           0
      3034 MEMB     28       CHL1     C25      CTL1    -0.900000E-01   12.0110           0
      3035 MEMB     28       CHL1     H25      HAL1     0.900000E-01   1.00800           0
      3036 MEMB     28       CHL1     C26      CTL3    -0.270000       12.0110           0
      3037 MEMB     28       CHL1     H26A     HAL3     0.900000E-01   1.00800           0
      3038 MEMB     28       CHL1     H26B     HAL3     0.900000E-01   1.00800           0
      3039 MEMB     28       CHL1     H26C     HAL3     0.900000E-01   1.00800           0
      3040 MEMB     28       CHL1     C27      CTL3    -0.270000       12.0110           0
      3041 MEMB     28       CHL1     H27A     HAL3     0.900000E-01   1.00800           0
      3042 MEMB     28       CHL1     H27B     HAL3     0.900000E-01   1.00800           0
      3043 MEMB     28       CHL1     H27C     HAL3     0.900000E-01   1.00800           0
      3044 MEMB     29       SAPE     N        NH3L    -0.300000       14.0070           0
      3045 MEMB     29       SAPE     HN1      HCL      0.330000       1.00800           0
      3046 MEMB     29       SAPE     HN2      HCL      0.330000       1.00800           0
      3047 MEMB     29       SAPE     HN3      HCL      0.330000       1.00800           0
      3048 MEMB     29       SAPE     C12      CTL2     0.130000       12.0110           0
      3049 MEMB     29       SAPE     H12A     HAL2     0.900000E-01   1.00800           0
      3050 MEMB     29       SAPE     H12B     HAL2     0.900000E-01   1.00800           0
      3051 MEMB     29       SAPE     C11      CTL2    -0.800000E-01   12.0110           0
      3052 MEMB     29       SAPE     H11A     HAL2     0.900000E-01   1.00800           0
      3053 MEMB     29       SAPE     H11B     HAL2     0.900000E-01   1.00800           0
      3054 MEMB     29       SAPE     P        PL        1.50000       30.9740           0
      3055 MEMB     29       SAPE     O13      O2L     -0.780000       15.9994           0
      3056 MEMB     29       SAPE     O14      O2L     -0.780000       15.9994           0
      3057 MEMB     29       SAPE     O12      OSLP    -0.570000       15.9994           0
      3058 MEMB     29       SAPE     O11      OSLP    -0.570000       15.9994           0
      3059 MEMB     29       SAPE     C1       CTL2    -0.800000E-01   12.0110           0
      3060 MEMB     29       SAPE     HA       HAL2     0.900000E-01   1.00800           0
      3061 MEMB     29       SAPE     HB       HAL2     0.900000E-01   1.00800           0
      3062 MEMB     29       SAPE     C2       CTL1     0.170000       12.0110           0
      3063 MEMB     29       SAPE     HS       HAL1     0.900000E-01   1.00800           0
      3064 MEMB     29       SAPE     O21      OSL     -0.490000       15.9994           0
      3065 MEMB     29       SAPE     C21      CL       0.900000       12.0110           0
      3066 MEMB     29       SAPE     O22      OBL     -0.630000       15.9994           0
      3067 MEMB     29       SAPE     C22      CTL2    -0.220000       12.0110           0
      3068 MEMB     29       SAPE     H2R      HAL2     0.900000E-01   1.00800           0
      3069 MEMB     29       SAPE     H2S      HAL2     0.900000E-01   1.00800           0
      3070 MEMB     29       SAPE     C3       CTL2     0.800000E-01   12.0110           0
      3071 MEMB     29       SAPE     HX       HAL2     0.900000E-01   1.00800           0
      3072 MEMB     29       SAPE     HY       HAL2     0.900000E-01   1.00800           0
      3073 MEMB     29       SAPE     O31      OSL     -0.490000       15.9994           0
      3074 MEMB     29       SAPE     C31      CL       0.900000       12.0110           0
      3075 MEMB     29       SAPE     O32      OBL     -0.630000       15.9994           0
      3076 MEMB     29       SAPE     C32      CTL2    -0.220000       12.0110           0
      3077 MEMB     29       SAPE     H2X      HAL2     0.900000E-01   1.00800           0
      3078 MEMB     29       SAPE     H2Y      HAL2     0.900000E-01   1.00800           0
      3079 MEMB     29       SAPE     C23      CTL2    -0.180000       12.0110           0
      3080 MEMB     29       SAPE     H3R      HAL2     0.900000E-01   1.00800           0
      3081 MEMB     29       SAPE     H3S      HAL2     0.900000E-01   1.00800           0
      3082 MEMB     29       SAPE     C24      CTL2    -0.180000       12.0110           0
      3083 MEMB     29       SAPE     H4R      HAL2     0.900000E-01   1.00800           0
      3084 MEMB     29       SAPE     H4S      HAL2     0.900000E-01   1.00800           0
      3085 MEMB     29       SAPE     C25      CEL1    -0.150000       12.0110           0
      3086 MEMB     29       SAPE     H5R      HEL1     0.150000       1.00800           0
      3087 MEMB     29       SAPE     C26      CEL1    -0.150000       12.0110           0
      3088 MEMB     29       SAPE     H6R      HEL1     0.150000       1.00800           0
      3089 MEMB     29       SAPE     C27      CTL2    -0.180000       12.0110           0
      3090 MEMB     29       SAPE     H7R      HAL2     0.900000E-01   1.00800           0
      3091 MEMB     29       SAPE     H7S      HAL2     0.900000E-01   1.00800           0
      3092 MEMB     29       SAPE     C28      CEL1    -0.150000       12.0110           0
      3093 MEMB     29       SAPE     H8R      HEL1     0.150000       1.00800           0
      3094 MEMB     29       SAPE     C29      CEL1    -0.150000       12.0110           0
      3095 MEMB     29       SAPE     H9R      HEL1     0.150000       1.00800           0
      3096 MEMB     29       SAPE     C210     CTL2    -0.180000       12.0110           0
      3097 MEMB     29       SAPE     H10R     HAL2     0.900000E-01   1.00800           0
      3098 MEMB     29       SAPE     H10S     HAL2     0.900000E-01   1.00800           0
      3099 MEMB     29       SAPE     C211     CEL1    -0.150000       12.0110           0
      3100 MEMB     29       SAPE     H11R     HEL1     0.150000       1.00800           0
      3101 MEMB     29       SAPE     C212     CEL1    -0.150000       12.0110           0
      3102 MEMB     29       SAPE     H12R     HEL1     0.150000       1.00800           0
      3103 MEMB     29       SAPE     C213     CTL2    -0.180000       12.0110           0
      3104 MEMB     29       SAPE     H13R     HAL2     0.900000E-01   1.00800           0
      3105 MEMB     29       SAPE     H13S     HAL2     0.900000E-01   1.00800           0
      3106 MEMB     29       SAPE     C214     CEL1    -0.150000       12.0110           0
      3107 MEMB     29       SAPE     H14R     HEL1     0.150000       1.00800           0
      3108 MEMB     29       SAPE     C215     CEL1    -0.150000       12.0110           0
      3109 MEMB     29       SAPE     H15R     HEL1     0.150000       1.00800           0
      3110 MEMB     29       SAPE     C216     CTL2    -0.180000       12.0110           0
      3111 MEMB     29       SAPE     H16R     HAL2     0.900000E-01   1.00800           0
      3112 MEMB     29       SAPE     H16S     HAL2     0.900000E-01   1.00800           0
      3113 MEMB     29       SAPE     C217     CTL2    -0.180000       12.0110           0
      3114 MEMB     29       SAPE     H17R     HAL2     0.900000E-01   1.00800           0
      3115 MEMB     29       SAPE     H17S     HAL2     0.900000E-01   1.00800           0
      3116 MEMB     29       SAPE     C218     CTL2    -0.180000       12.0110           0
      3117 MEMB     29       SAPE     H18R     HAL2     0.900000E-01   1.00800           0
      3118 MEMB     29       SAPE     H18S     HAL2     0.900000E-01   1.00800           0
      3119 MEMB     29       SAPE     C219     CTL2    -0.180000       12.0110           0
      3120 MEMB     29       SAPE     H19R     HAL2     0.900000E-01   1.00800           0
      3121 MEMB     29       SAPE     H19S     HAL2     0.900000E-01   1.00800           0
      3122 MEMB     29       SAPE     C220     CTL3    -0.270000       12.0110           0
      3123 MEMB     29       SAPE     H20R     HAL3     0.900000E-01   1.00800           0
      3124 MEMB     29       SAPE     H20S     HAL3     0.900000E-01   1.00800           0
      3125 MEMB     29       SAPE     H20T     HAL3     0.900000E-01   1.00800           0
      3126 MEMB     29       SAPE     C33      CTL2    -0.180000       12.0110           0
      3127 MEMB     29       SAPE     H3X      HAL2     0.900000E-01   1.00800           0
      3128 MEMB     29       SAPE     H3Y      HAL2     0.900000E-01   1.00800           0
      3129 MEMB     29       SAPE     C34      CTL2    -0.180000       12.0110           0
      3130 MEMB     29       SAPE     H4X      HAL2     0.900000E-01   1.00800           0
      3131 MEMB     29       SAPE     H4Y      HAL2     0.900000E-01   1.00800           0
      3132 MEMB     29       SAPE     C35      CTL2    -0.180000       12.0110           0
      3133 MEMB     29       SAPE     H5X      HAL2     0.900000E-01   1.00800           0
      3134 MEMB     29       SAPE     H5Y      HAL2     0.900000E-01   1.00800           0
      3135 MEMB     29       SAPE     C36      CTL2    -0.180000       12.0110           0
      3136 MEMB     29       SAPE     H6X      HAL2     0.900000E-01   1.00800           0
      3137 MEMB     29       SAPE     H6Y      HAL2     0.900000E-01   1.00800           0
      3138 MEMB     29       SAPE     C37      CTL2    -0.180000       12.0110           0
      3139 MEMB     29       SAPE     H7X      HAL2     0.900000E-01   1.00800           0
      3140 MEMB     29       SAPE     H7Y      HAL2     0.900000E-01   1.00800           0
      3141 MEMB     29       SAPE     C38      CTL2    -0.180000       12.0110           0
      3142 MEMB     29       SAPE     H8X      HAL2     0.900000E-01   1.00800           0
      3143 MEMB     29       SAPE     H8Y      HAL2     0.900000E-01   1.00800           0
      3144 MEMB     29       SAPE     C39      CTL2    -0.180000       12.0110           0
      3145 MEMB     29       SAPE     H9X      HAL2     0.900000E-01   1.00800           0
      3146 MEMB     29       SAPE     H9Y      HAL2     0.900000E-01   1.00800           0
      3147 MEMB     29       SAPE     C310     CTL2    -0.180000       12.0110           0
      3148 MEMB     29       SAPE     H10X     HAL2     0.900000E-01   1.00800           0
      3149 MEMB     29       SAPE     H10Y     HAL2     0.900000E-01   1.00800           0
      3150 MEMB     29       SAPE     C311     CTL2    -0.180000       12.0110           0
      3151 MEMB     29       SAPE     H11X     HAL2     0.900000E-01   1.00800           0
      3152 MEMB     29       SAPE     H11Y     HAL2     0.900000E-01   1.00800           0
      3153 MEMB     29       SAPE     C312     CTL2    -0.180000       12.0110           0
      3154 MEMB     29       SAPE     H12X     HAL2     0.900000E-01   1.00800           0
      3155 MEMB     29       SAPE     H12Y     HAL2     0.900000E-01   1.00800           0
      3156 MEMB     29       SAPE     C313     CTL2    -0.180000       12.0110           0
      3157 MEMB     29       SAPE     H13X     HAL2     0.900000E-01   1.00800           0
      3158 MEMB     29       SAPE     H13Y     HAL2     0.900000E-01   1.00800           0
      3159 MEMB     29       SAPE     C314     CTL2    -0.180000       12.0110           0
      3160 MEMB     29       SAPE     H14X     HAL2     0.900000E-01   1.00800           0
      3161 MEMB     29       SAPE     H14Y     HAL2     0.900000E-01   1.00800           0
      3162 MEMB     29       SAPE     C315     CTL2    -0.180000       12.0110           0
      3163 MEMB     29       SAPE     H15X     HAL2     0.900000E-01   1.00800           0
      3164 MEMB     29       SAPE     H15Y     HAL2     0.900000E-01   1.00800           0
      3165 MEMB     29       SAPE     C316     CTL2    -0.180000       12.0110           0
      3166 MEMB     29       SAPE     H16X     HAL2     0.900000E-01   1.00800           0
      3167 MEMB     29       SAPE     H16Y     HAL2     0.900000E-01   1.00800           0
      3168 MEMB     29       SAPE     C317     CTL2    -0.180000       12.0110           0
      3169 MEMB     29       SAPE     H17X     HAL2     0.900000E-01   1.00800           0
      3170 MEMB     29       SAPE     H17Y     HAL2     0.900000E-01   1.00800           0
      3171 MEMB     29       SAPE     C318     CTL3    -0.270000       12.0110           0
      3172 MEMB     29       SAPE     H18X     HAL3     0.900000E-01   1.00800           0
      3173 MEMB     29       SAPE     H18Y     HAL3     0.900000E-01   1.00800           0
      3174 MEMB     29       SAPE     H18Z     HAL3     0.900000E-01   1.00800           0
      3175 MEMB     30       OSM      N        NTL     -0.600000       14.0070           0
      3176 MEMB     30       OSM      C15      CTL5    -0.350000       12.0110           0
      3177 MEMB     30       OSM      H15A     HL       0.250000       1.00800           0
      3178 MEMB     30       OSM      H15B     HL       0.250000       1.00800           0
      3179 MEMB     30       OSM      H15C     HL       0.250000       1.00800           0
      3180 MEMB     30       OSM      C14      CTL5    -0.350000       12.0110           0
      3181 MEMB     30       OSM      H14A     HL       0.250000       1.00800           0
      3182 MEMB     30       OSM      H14B     HL       0.250000       1.00800           0
      3183 MEMB     30       OSM      H14C     HL       0.250000       1.00800           0
      3184 MEMB     30       OSM      C13      CTL5    -0.350000       12.0110           0
      3185 MEMB     30       OSM      H13A     HL       0.250000       1.00800           0
      3186 MEMB     30       OSM      H13B     HL       0.250000       1.00800           0
      3187 MEMB     30       OSM      H13C     HL       0.250000       1.00800           0
      3188 MEMB     30       OSM      C12      CTL2    -0.100000       12.0110           0
      3189 MEMB     30       OSM      H12A     HL       0.250000       1.00800           0
      3190 MEMB     30       OSM      H12B     HL       0.250000       1.00800           0
      3191 MEMB     30       OSM      C11      CTL2    -0.800000E-01   12.0110           0
      3192 MEMB     30       OSM      H11A     HAL2     0.900000E-01   1.00800           0
      3193 MEMB     30       OSM      H11B     HAL2     0.900000E-01   1.00800           0
      3194 MEMB     30       OSM      P        PL        1.50000       30.9740           0
      3195 MEMB     30       OSM      O13      O2L     -0.780000       15.9994           0
      3196 MEMB     30       OSM      O14      O2L     -0.780000       15.9994           0
      3197 MEMB     30       OSM      O11      OSLP    -0.570000       15.9994           0
      3198 MEMB     30       OSM      O12      OSLP    -0.570000       15.9994           0
      3199 MEMB     30       OSM      C1S      CTL2    -0.800000E-01   12.0110           0
      3200 MEMB     30       OSM      H1S      HAL2     0.900000E-01   1.00800           0
      3201 MEMB     30       OSM      H1T      HAL2     0.900000E-01   1.00800           0
      3202 MEMB     30       OSM      NF       NHL     -0.700000       14.0070           0
      3203 MEMB     30       OSM      HNF      H        0.350000       1.00800           0
      3204 MEMB     30       OSM      C2S      CTL1     0.300000       12.0110           0
      3205 MEMB     30       OSM      H2S      HAL1     0.500000E-01   1.00800           0
      3206 MEMB     30       OSM      C3S      CTO1     0.500000       12.0110           0
      3207 MEMB     30       OSM      H3S      HAL1    -0.110000       1.00800           0
      3208 MEMB     30       OSM      O3       OHL     -0.690000       15.9994           0
      3209 MEMB     30       OSM      HO3      HOL      0.300000       1.00800           0
      3210 MEMB     30       OSM      C4S      CEL3    -0.150000       12.0110           0
      3211 MEMB     30       OSM      H4S      HEL1     0.150000       1.00800           0
      3212 MEMB     30       OSM      C5S      CEL3    -0.150000       12.0110           0
      3213 MEMB     30       OSM      H5S      HEL1     0.150000       1.00800           0
      3214 MEMB     30       OSM      C6S      CTL2    -0.180000       12.0110           0
      3215 MEMB     30       OSM      H6S      HAL2     0.900000E-01   1.00800           0
      3216 MEMB     30       OSM      H6T      HAL2     0.900000E-01   1.00800           0
      3217 MEMB     30       OSM      C7S      CTL2    -0.180000       12.0110           0
      3218 MEMB     30       OSM      H7S      HAL2     0.900000E-01   1.00800           0
      3219 MEMB     30       OSM      H7T      HAL2     0.900000E-01   1.00800           0
      3220 MEMB     30       OSM      C8S      CTL2    -0.180000       12.0110           0
      3221 MEMB     30       OSM      H8S      HAL2     0.900000E-01   1.00800           0
      3222 MEMB     30       OSM      H8T      HAL2     0.900000E-01   1.00800           0
      3223 MEMB     30       OSM      C9S      CTL2    -0.180000       12.0110           0
      3224 MEMB     30       OSM      H9S      HAL2     0.900000E-01   1.00800           0
      3225 MEMB     30       OSM      H9T      HAL2     0.900000E-01   1.00800           0
      3226 MEMB     30       OSM      C10S     CTL2    -0.180000       12.0110           0
      3227 MEMB     30       OSM      H10S     HAL2     0.900000E-01   1.00800           0
      3228 MEMB     30       OSM      H10T     HAL2     0.900000E-01   1.00800           0
      3229 MEMB     30       OSM      C11S     CTL2    -0.180000       12.0110           0
      3230 MEMB     30       OSM      H11S     HAL2     0.900000E-01   1.00800           0
      3231 MEMB     30       OSM      H11T     HAL2     0.900000E-01   1.00800           0
      3232 MEMB     30       OSM      C12S     CTL2    -0.180000       12.0110           0
      3233 MEMB     30       OSM      H12S     HAL2     0.900000E-01   1.00800           0
      3234 MEMB     30       OSM      H12T     HAL2     0.900000E-01   1.00800           0
      3235 MEMB     30       OSM      C13S     CTL2    -0.180000       12.0110           0
      3236 MEMB     30       OSM      H13S     HAL2     0.900000E-01   1.00800           0
      3237 MEMB     30       OSM      H13T     HAL2     0.900000E-01   1.00800           0
      3238 MEMB     30       OSM      C14S     CTL2    -0.180000       12.0110           0
      3239 MEMB     30       OSM      H14S     HAL2     0.900000E-01   1.00800           0
      3240 MEMB     30       OSM      H14T     HAL2     0.900000E-01   1.00800           0
      3241 MEMB     30       OSM      C15S     CTL2    -0.180000       12.0110           0
      3242 MEMB     30       OSM      H15S     HAL2     0.900000E-01   1.00800           0
      3243 MEMB     30       OSM      H15T     HAL2     0.900000E-01   1.00800           0
      3244 MEMB     30       OSM      C16S     CTL2    -0.180000       12.0110           0
      3245 MEMB     30       OSM      H16S     HAL2     0.900000E-01   1.00800           0
      3246 MEMB     30       OSM      H16T     HAL2     0.900000E-01   1.00800           0
      3247 MEMB     30       OSM      C17S     CTL2    -0.180000       12.0110           0
      3248 MEMB     30       OSM      H17S     HAL2     0.900000E-01   1.00800           0
      3249 MEMB     30       OSM      H17T     HAL2     0.900000E-01   1.00800           0
      3250 MEMB     30       OSM      C18S     CTL3    -0.270000       12.0110           0
      3251 MEMB     30       OSM      H18S     HAL3     0.900000E-01   1.00800           0
      3252 MEMB     30       OSM      H18T     HAL3     0.900000E-01   1.00800           0
      3253 MEMB     30       OSM      H18U     HAL3     0.900000E-01   1.00800           0
      3254 MEMB     30       OSM      C1F      C        0.550000       12.0110           0
      3255 MEMB     30       OSM      OF       O       -0.600000       15.9994           0
      3256 MEMB     30       OSM      C2F      CTL2    -0.700000E-01   12.0110           0
      3257 MEMB     30       OSM      H2F      HAL2     0.600000E-01   1.00800           0
      3258 MEMB     30       OSM      H2G      HAL2     0.600000E-01   1.00800           0
      3259 MEMB     30       OSM      C3F      CTL2    -0.180000       12.0110           0
      3260 MEMB     30       OSM      H3F      HAL2     0.900000E-01   1.00800           0
      3261 MEMB     30       OSM      H3G      HAL2     0.900000E-01   1.00800           0
      3262 MEMB     30       OSM      C4F      CTL2    -0.180000       12.0110           0
      3263 MEMB     30       OSM      H4F      HAL2     0.900000E-01   1.00800           0
      3264 MEMB     30       OSM      H4G      HAL2     0.900000E-01   1.00800           0
      3265 MEMB     30       OSM      C5F      CTL2    -0.180000       12.0110           0
      3266 MEMB     30       OSM      H5F      HAL2     0.900000E-01   1.00800           0
      3267 MEMB     30       OSM      H5G      HAL2     0.900000E-01   1.00800           0
      3268 MEMB     30       OSM      C6F      CTL2    -0.180000       12.0110           0
      3269 MEMB     30       OSM      H6F      HAL2     0.900000E-01   1.00800           0
      3270 MEMB     30       OSM      H6G      HAL2     0.900000E-01   1.00800           0
      3271 MEMB     30       OSM      C7F      CTL2    -0.180000       12.0110           0
      3272 MEMB     30       OSM      H7F      HAL2     0.900000E-01   1.00800           0
      3273 MEMB     30       OSM      H7G      HAL2     0.900000E-01   1.00800           0
      3274 MEMB     30       OSM      C8F      CTL2    -0.180000       12.0110           0
      3275 MEMB     30       OSM      H8F      HAL2     0.900000E-01   1.00800           0
      3276 MEMB     30       OSM      H8G      HAL2     0.900000E-01   1.00800           0
      3277 MEMB     30       OSM      C9F      CEL1    -0.150000       12.0110           0
      3278 MEMB     30       OSM      H9F      HEL1     0.150000       1.00800           0
      3279 MEMB     30       OSM      C10F     CEL1    -0.150000       12.0110           0
      3280 MEMB     30       OSM      H10F     HEL1     0.150000       1.00800           0
      3281 MEMB     30       OSM      C11F     CTL2    -0.180000       12.0110           0
      3282 MEMB     30       OSM      H11F     HAL2     0.900000E-01   1.00800           0
      3283 MEMB     30       OSM      H11G     HAL2     0.900000E-01   1.00800           0
      3284 MEMB     30       OSM      C12F     CTL2    -0.180000       12.0110           0
      3285 MEMB     30       OSM      H12F     HAL2     0.900000E-01   1.00800           0
      3286 MEMB     30       OSM      H12G     HAL2     0.900000E-01   1.00800           0
      3287 MEMB     30       OSM      C13F     CTL2    -0.180000       12.0110           0
      3288 MEMB     30       OSM      H13F     HAL2     0.900000E-01   1.00800           0
      3289 MEMB     30       OSM      H13G     HAL2     0.900000E-01   1.00800           0
      3290 MEMB     30       OSM      C14F     CTL2    -0.180000       12.0110           0
      3291 MEMB     30       OSM      H14F     HAL2     0.900000E-01   1.00800           0
      3292 MEMB     30       OSM      H14G     HAL2     0.900000E-01   1.00800           0
      3293 MEMB     30       OSM      C15F     CTL2    -0.180000       12.0110           0
      3294 MEMB     30       OSM      H15F     HAL2     0.900000E-01   1.00800           0
      3295 MEMB     30       OSM      H15G     HAL2     0.900000E-01   1.00800           0
      3296 MEMB     30       OSM      C16F     CTL2    -0.180000       12.0110           0
      3297 MEMB     30       OSM      H16F     HAL2     0.900000E-01   1.00800           0
      3298 MEMB     30       OSM      H16G     HAL2     0.900000E-01   1.00800           0
      3299 MEMB     30       OSM      C17F     CTL2    -0.180000       12.0110           0
      3300 MEMB     30       OSM      H17F     HAL2     0.900000E-01   1.00800           0
      3301 MEMB     30       OSM      H17G     HAL2     0.900000E-01   1.00800           0
      3302 MEMB     30       OSM      C18F     CTL3    -0.270000       12.0110           0
      3303 MEMB     30       OSM      H18F     HAL3     0.900000E-01   1.00800           0
      3304 MEMB     30       OSM      H18G     HAL3     0.900000E-01   1.00800           0
      3305 MEMB     30       OSM      H18H     HAL3     0.900000E-01   1.00800           0
      3306 MEMB     31       CHL1     C3       CRL1     0.140000       12.0110           0
      3307 MEMB     31       CHL1     H3       HGA1     0.900000E-01   1.00800           0
      3308 MEMB     31       CHL1     O3       OHL     -0.660000       15.9994           0
      3309 MEMB     31       CHL1     H3'      HOL      0.430000       1.00800           0
      3310 MEMB     31       CHL1     C4       CRL2    -0.180000       12.0110           0
      3311 MEMB     31       CHL1     H4A      HGA2     0.900000E-01   1.00800           0
      3312 MEMB     31       CHL1     H4B      HGA2     0.900000E-01   1.00800           0
      3313 MEMB     31       CHL1     C5       CEL1      0.00000       12.0110           0
      3314 MEMB     31       CHL1     C6       CEL1    -0.150000       12.0110           0
      3315 MEMB     31       CHL1     H6       HEL1     0.150000       1.00800           0
      3316 MEMB     31       CHL1     C7       CRL2    -0.180000       12.0110           0
      3317 MEMB     31       CHL1     H7A      HGA2     0.900000E-01   1.00800           0
      3318 MEMB     31       CHL1     H7B      HGA2     0.900000E-01   1.00800           0
      3319 MEMB     31       CHL1     C8       CRL1    -0.900000E-01   12.0110           0
      3320 MEMB     31       CHL1     H8       HGA1     0.900000E-01   1.00800           0
      3321 MEMB     31       CHL1     C14      CRL1    -0.900000E-01   12.0110           0
      3322 MEMB     31       CHL1     H14      HGA1     0.900000E-01   1.00800           0
      3323 MEMB     31       CHL1     C15      CRL2    -0.180000       12.0110           0
      3324 MEMB     31       CHL1     H15A     HGA2     0.900000E-01   1.00800           0
      3325 MEMB     31       CHL1     H15B     HGA2     0.900000E-01   1.00800           0
      3326 MEMB     31       CHL1     C16      CRL2    -0.180000       12.0110           0
      3327 MEMB     31       CHL1     H16A     HGA2     0.900000E-01   1.00800           0
      3328 MEMB     31       CHL1     H16B     HGA2     0.900000E-01   1.00800           0
      3329 MEMB     31       CHL1     C17      CRL1    -0.900000E-01   12.0110           0
      3330 MEMB     31       CHL1     H17      HGA1     0.900000E-01   1.00800           0
      3331 MEMB     31       CHL1     C13      CRL1      0.00000       12.0110           0
      3332 MEMB     31       CHL1     C18      CTL3    -0.270000       12.0110           0
      3333 MEMB     31       CHL1     H18A     HAL3     0.900000E-01   1.00800           0
      3334 MEMB     31       CHL1     H18B     HAL3     0.900000E-01   1.00800           0
      3335 MEMB     31       CHL1     H18C     HAL3     0.900000E-01   1.00800           0
      3336 MEMB     31       CHL1     C12      CRL2    -0.180000       12.0110           0
      3337 MEMB     31       CHL1     H12A     HGA2     0.900000E-01   1.00800           0
      3338 MEMB     31       CHL1     H12B     HGA2     0.900000E-01   1.00800           0
      3339 MEMB     31       CHL1     C11      CRL2    -0.180000       12.0110           0
      3340 MEMB     31       CHL1     H11A     HGA2     0.900000E-01   1.00800           0
      3341 MEMB     31       CHL1     H11B     HGA2     0.900000E-01   1.00800           0
      3342 MEMB     31       CHL1     C9       CRL1    -0.900000E-01   12.0110           0
      3343 MEMB     31       CHL1     H9       HGA1     0.900000E-01   1.00800           0
      3344 MEMB     31       CHL1     C10      CRL1      0.00000       12.0110           0
      3345 MEMB     31       CHL1     C19      CTL3    -0.270000       12.0110           0
      3346 MEMB     31       CHL1     H19A     HAL3     0.900000E-01   1.00800           0
      3347 MEMB     31       CHL1     H19B     HAL3     0.900000E-01   1.00800           0
      3348 MEMB     31       CHL1     H19C     HAL3     0.900000E-01   1.00800           0
      3349 MEMB     31       CHL1     C1       CRL2    -0.180000       12.0110           0
      3350 MEMB     31       CHL1     H1A      HGA2     0.900000E-01   1.00800           0
      3351 MEMB     31       CHL1     H1B      HGA2     0.900000E-01   1.00800           0
      3352 MEMB     31       CHL1     C2       CRL2    -0.180000       12.0110           0
      3353 MEMB     31       CHL1     H2A      HGA2     0.900000E-01   1.00800           0
      3354 MEMB     31       CHL1     H2B      HGA2     0.900000E-01   1.00800           0
      3355 MEMB     31       CHL1     C20      CTL1    -0.900000E-01   12.0110           0
      3356 MEMB     31       CHL1     H20      HAL1     0.900000E-01   1.00800           0
      3357 MEMB     31       CHL1     C21      CTL3    -0.270000       12.0110           0
      3358 MEMB     31       CHL1     H21A     HAL3     0.900000E-01   1.00800           0
      3359 MEMB     31       CHL1     H21B     HAL3     0.900000E-01   1.00800           0
      3360 MEMB     31       CHL1     H21C     HAL3     0.900000E-01   1.00800           0
      3361 MEMB     31       CHL1     C22      CTL2    -0.180000       12.0110           0
      3362 MEMB     31       CHL1     H22A     HAL2     0.900000E-01   1.00800           0
      3363 MEMB     31       CHL1     H22B     HAL2     0.900000E-01   1.00800           0
      3364 MEMB     31       CHL1     C23      CTL2    -0.180000       12.0110           0
      3365 MEMB     31       CHL1     H23A     HAL2     0.900000E-01   1.00800           0
      3366 MEMB     31       CHL1     H23B     HAL2     0.900000E-01   1.00800           0
      3367 MEMB     31       CHL1     C24      CTL2    -0.180000       12.0110           0
      3368 MEMB     31       CHL1     H24A     HAL2     0.900000E-01   1.00800           0
      3369 MEMB     31       CHL1     H24B     HAL2     0.900000E-01   1.00800           0
      3370 MEMB     31       CHL1     C25      CTL1    -0.900000E-01   12.0110           0
      3371 MEMB     31       CHL1     H25      HAL1     0.900000E-01   1.00800           0
      3372 MEMB     31       CHL1     C26      CTL3    -0.270000       12.0110           0
      3373 MEMB     31       CHL1     H26A     HAL3     0.900000E-01   1.00800           0
      3374 MEMB     31       CHL1     H26B     HAL3     0.900000E-01   1.00800           0
      3375 MEMB     31       CHL1     H26C     HAL3     0.900000E-01   1.00800           0
      3376 MEMB     31       CHL1     C27      CTL3    -0.270000       12.0110           0
      3377 MEMB     31       CHL1     H27A     HAL3     0.900000E-01   1.00800           0
      3378 MEMB     31       CHL1     H27B     HAL3     0.900000E-01   1.00800           0
      3379 MEMB     31       CHL1     H27C     HAL3     0.900000E-01   1.00800           0
      3380 MEMB     32       OSM      N        NTL     -0.600000       14.0070           0
      3381 MEMB     32       OSM      C15      CTL5    -0.350000       12.0110           0
      3382 MEMB     32       OSM      H15A     HL       0.250000       1.00800           0
      3383 MEMB     32       OSM      H15B     HL       0.250000       1.00800           0
      3384 MEMB     32       OSM      H15C     HL       0.250000       1.00800           0
      3385 MEMB     32       OSM      C14      CTL5    -0.350000       12.0110           0
      3386 MEMB     32       OSM      H14A     HL       0.250000       1.00800           0
      3387 MEMB     32       OSM      H14B     HL       0.250000       1.00800           0
      3388 MEMB     32       OSM      H14C     HL       0.250000       1.00800           0
      3389 MEMB     32       OSM      C13      CTL5    -0.350000       12.0110           0
      3390 MEMB     32       OSM      H13A     HL       0.250000       1.00800           0
      3391 MEMB     32       OSM      H13B     HL       0.250000       1.00800           0
      3392 MEMB     32       OSM      H13C     HL       0.250000       1.00800           0
      3393 MEMB     32       OSM      C12      CTL2    -0.100000       12.0110           0
      3394 MEMB     32       OSM      H12A     HL       0.250000       1.00800           0
      3395 MEMB     32       OSM      H12B     HL       0.250000       1.00800           0
      3396 MEMB     32       OSM      C11      CTL2    -0.800000E-01   12.0110           0
      3397 MEMB     32       OSM      H11A     HAL2     0.900000E-01   1.00800           0
      3398 MEMB     32       OSM      H11B     HAL2     0.900000E-01   1.00800           0
      3399 MEMB     32       OSM      P        PL        1.50000       30.9740           0
      3400 MEMB     32       OSM      O13      O2L     -0.780000       15.9994           0
      3401 MEMB     32       OSM      O14      O2L     -0.780000       15.9994           0
      3402 MEMB     32       OSM      O11      OSLP    -0.570000       15.9994           0
      3403 MEMB     32       OSM      O12      OSLP    -0.570000       15.9994           0
      3404 MEMB     32       OSM      C1S      CTL2    -0.800000E-01   12.0110           0
      3405 MEMB     32       OSM      H1S      HAL2     0.900000E-01   1.00800           0
      3406 MEMB     32       OSM      H1T      HAL2     0.900000E-01   1.00800           0
      3407 MEMB     32       OSM      NF       NHL     -0.700000       14.0070           0
      3408 MEMB     32       OSM      HNF      H        0.350000       1.00800           0
      3409 MEMB     32       OSM      C2S      CTL1     0.300000       12.0110           0
      3410 MEMB     32       OSM      H2S      HAL1     0.500000E-01   1.00800           0
      3411 MEMB     32       OSM      C3S      CTO1     0.500000       12.0110           0
      3412 MEMB     32       OSM      H3S      HAL1    -0.110000       1.00800           0
      3413 MEMB     32       OSM      O3       OHL     -0.690000       15.9994           0
      3414 MEMB     32       OSM      HO3      HOL      0.300000       1.00800           0
      3415 MEMB     32       OSM      C4S      CEL3    -0.150000       12.0110           0
      3416 MEMB     32       OSM      H4S      HEL1     0.150000       1.00800           0
      3417 MEMB     32       OSM      C5S      CEL3    -0.150000       12.0110           0
      3418 MEMB     32       OSM      H5S      HEL1     0.150000       1.00800           0
      3419 MEMB     32       OSM      C6S      CTL2    -0.180000       12.0110           0
      3420 MEMB     32       OSM      H6S      HAL2     0.900000E-01   1.00800           0
      3421 MEMB     32       OSM      H6T      HAL2     0.900000E-01   1.00800           0
      3422 MEMB     32       OSM      C7S      CTL2    -0.180000       12.0110           0
      3423 MEMB     32       OSM      H7S      HAL2     0.900000E-01   1.00800           0
      3424 MEMB     32       OSM      H7T      HAL2     0.900000E-01   1.00800           0
      3425 MEMB     32       OSM      C8S      CTL2    -0.180000       12.0110           0
      3426 MEMB     32       OSM      H8S      HAL2     0.900000E-01   1.00800           0
      3427 MEMB     32       OSM      H8T      HAL2     0.900000E-01   1.00800           0
      3428 MEMB     32       OSM      C9S      CTL2    -0.180000       12.0110           0
      3429 MEMB     32       OSM      H9S      HAL2     0.900000E-01   1.00800           0
      3430 MEMB     32       OSM      H9T      HAL2     0.900000E-01   1.00800           0
      3431 MEMB     32       OSM      C10S     CTL2    -0.180000       12.0110           0
      3432 MEMB     32       OSM      H10S     HAL2     0.900000E-01   1.00800           0
      3433 MEMB     32       OSM      H10T     HAL2     0.900000E-01   1.00800           0
      3434 MEMB     32       OSM      C11S     CTL2    -0.180000       12.0110           0
      3435 MEMB     32       OSM      H11S     HAL2     0.900000E-01   1.00800           0
      3436 MEMB     32       OSM      H11T     HAL2     0.900000E-01   1.00800           0
      3437 MEMB     32       OSM      C12S     CTL2    -0.180000       12.0110           0
      3438 MEMB     32       OSM      H12S     HAL2     0.900000E-01   1.00800           0
      3439 MEMB     32       OSM      H12T     HAL2     0.900000E-01   1.00800           0
      3440 MEMB     32       OSM      C13S     CTL2    -0.180000       12.0110           0
      3441 MEMB     32       OSM      H13S     HAL2     0.900000E-01   1.00800           0
      3442 MEMB     32       OSM      H13T     HAL2     0.900000E-01   1.00800           0
      3443 MEMB     32       OSM      C14S     CTL2    -0.180000       12.0110           0
      3444 MEMB     32       OSM      H14S     HAL2     0.900000E-01   1.00800           0
      3445 MEMB     32       OSM      H14T     HAL2     0.900000E-01   1.00800           0
      3446 MEMB     32       OSM      C15S     CTL2    -0.180000       12.0110           0
      3447 MEMB     32       OSM      H15S     HAL2     0.900000E-01   1.00800           0
      3448 MEMB     32       OSM      H15T     HAL2     0.900000E-01   1.00800           0
      3449 MEMB     32       OSM      C16S     CTL2    -0.180000       12.0110           0
      3450 MEMB     32       OSM      H16S     HAL2     0.900000E-01   1.00800           0
      3451 MEMB     32       OSM      H16T     HAL2     0.900000E-01   1.00800           0
      3452 MEMB     32       OSM      C17S     CTL2    -0.180000       12.0110           0
      3453 MEMB     32       OSM      H17S     HAL2     0.900000E-01   1.00800           0
      3454 MEMB     32       OSM      H17T     HAL2     0.900000E-01   1.00800           0
      3455 MEMB     32       OSM      C18S     CTL3    -0.270000       12.0110           0
      3456 MEMB     32       OSM      H18S     HAL3     0.900000E-01   1.00800           0
      3457 MEMB     32       OSM      H18T     HAL3     0.900000E-01   1.00800           0
      3458 MEMB     32       OSM      H18U     HAL3     0.900000E-01   1.00800           0
      3459 MEMB     32       OSM      C1F      C        0.550000       12.0110           0
      3460 MEMB     32       OSM      OF       O       -0.600000       15.9994           0
      3461 MEMB     32       OSM      C2F      CTL2    -0.700000E-01   12.0110           0
      3462 MEMB     32       OSM      H2F      HAL2     0.600000E-01   1.00800           0
      3463 MEMB     32       OSM      H2G      HAL2     0.600000E-01   1.00800           0
      3464 MEMB     32       OSM      C3F      CTL2    -0.180000       12.0110           0
      3465 MEMB     32       OSM      H3F      HAL2     0.900000E-01   1.00800           0
      3466 MEMB     32       OSM      H3G      HAL2     0.900000E-01   1.00800           0
      3467 MEMB     32       OSM      C4F      CTL2    -0.180000       12.0110           0
      3468 MEMB     32       OSM      H4F      HAL2     0.900000E-01   1.00800           0
      3469 MEMB     32       OSM      H4G      HAL2     0.900000E-01   1.00800           0
      3470 MEMB     32       OSM      C5F      CTL2    -0.180000       12.0110           0
      3471 MEMB     32       OSM      H5F      HAL2     0.900000E-01   1.00800           0
      3472 MEMB     32       OSM      H5G      HAL2     0.900000E-01   1.00800           0
      3473 MEMB     32       OSM      C6F      CTL2    -0.180000       12.0110           0
      3474 MEMB     32       OSM      H6F      HAL2     0.900000E-01   1.00800           0
      3475 MEMB     32       OSM      H6G      HAL2     0.900000E-01   1.00800           0
      3476 MEMB     32       OSM      C7F      CTL2    -0.180000       12.0110           0
      3477 MEMB     32       OSM      H7F      HAL2     0.900000E-01   1.00800           0
      3478 MEMB     32       OSM      H7G      HAL2     0.900000E-01   1.00800           0
      3479 MEMB     32       OSM      C8F      CTL2    -0.180000       12.0110           0
      3480 MEMB     32       OSM      H8F      HAL2     0.900000E-01   1.00800           0
      3481 MEMB     32       OSM      H8G      HAL2     0.900000E-01   1.00800           0
      3482 MEMB     32       OSM      C9F      CEL1    -0.150000       12.0110           0
      3483 MEMB     32       OSM      H9F      HEL1     0.150000       1.00800           0
      3484 MEMB     32       OSM      C10F     CEL1    -0.150000       12.0110           0
      3485 MEMB     32       OSM      H10F     HEL1     0.150000       1.00800           0
      3486 MEMB     32       OSM      C11F     CTL2    -0.180000       12.0110           0
      3487 MEMB     32       OSM      H11F     HAL2     0.900000E-01   1.00800           0
      3488 MEMB     32       OSM      H11G     HAL2     0.900000E-01   1.00800           0
      3489 MEMB     32       OSM      C12F     CTL2    -0.180000       12.0110           0
      3490 MEMB     32       OSM      H12F     HAL2     0.900000E-01   1.00800           0
      3491 MEMB     32       OSM      H12G     HAL2     0.900000E-01   1.00800           0
      3492 MEMB     32       OSM      C13F     CTL2    -0.180000       12.0110           0
      3493 MEMB     32       OSM      H13F     HAL2     0.900000E-01   1.00800           0
      3494 MEMB     32       OSM      H13G     HAL2     0.900000E-01   1.00800           0
      3495 MEMB     32       OSM      C14F     CTL2    -0.180000       12.0110           0
      3496 MEMB     32       OSM      H14F     HAL2     0.900000E-01   1.00800           0
      3497 MEMB     32       OSM      H14G     HAL2     0.900000E-01   1.00800           0
      3498 MEMB     32       OSM      C15F     CTL2    -0.180000       12.0110           0
      3499 MEMB     32       OSM      H15F     HAL2     0.900000E-01   1.00800           0
      3500 MEMB     32       OSM      H15G     HAL2     0.900000E-01   1.00800           0
      3501 MEMB     32       OSM      C16F     CTL2    -0.180000       12.0110           0
      3502 MEMB     32       OSM      H16F     HAL2     0.900000E-01   1.00800           0
      3503 MEMB     32       OSM      H16G     HAL2     0.900000E-01   1.00800           0
      3504 MEMB     32       OSM      C17F     CTL2    -0.180000       12.0110           0
      3505 MEMB     32       OSM      H17F     HAL2     0.900000E-01   1.00800           0
      3506 MEMB     32       OSM      H17G     HAL2     0.900000E-01   1.00800           0
      3507 MEMB     32       OSM      C18F     CTL3    -0.270000       12.0110           0
      3508 MEMB     32       OSM      H18F     HAL3     0.900000E-01   1.00800           0
      3509 MEMB     32       OSM      H18G     HAL3     0.900000E-01   1.00800           0
      3510 MEMB     32       OSM      H18H     HAL3     0.900000E-01   1.00800           0
      3511 MEMB     33       SLPC     N        NTL     -0.600000       14.0070           0
      3512 MEMB     33       SLPC     C13      CTL5    -0.350000       12.0110           0
      3513 MEMB     33       SLPC     H13A     HL       0.250000       1.00800           0
      3514 MEMB     33       SLPC     H13B     HL       0.250000       1.00800           0
      3515 MEMB     33       SLPC     H13C     HL       0.250000       1.00800           0
      3516 MEMB     33       SLPC     C14      CTL5    -0.350000       12.0110           0
      3517 MEMB     33       SLPC     H14A     HL       0.250000       1.00800           0
      3518 MEMB     33       SLPC     H14B     HL       0.250000       1.00800           0
      3519 MEMB     33       SLPC     H14C     HL       0.250000       1.00800           0
      3520 MEMB     33       SLPC     C15      CTL5    -0.350000       12.0110           0
      3521 MEMB     33       SLPC     H15A     HL       0.250000       1.00800           0
      3522 MEMB     33       SLPC     H15B     HL       0.250000       1.00800           0
      3523 MEMB     33       SLPC     H15C     HL       0.250000       1.00800           0
      3524 MEMB     33       SLPC     C12      CTL2    -0.100000       12.0110           0
      3525 MEMB     33       SLPC     H12A     HL       0.250000       1.00800           0
      3526 MEMB     33       SLPC     H12B     HL       0.250000       1.00800           0
      3527 MEMB     33       SLPC     C11      CTL2    -0.800000E-01   12.0110           0
      3528 MEMB     33       SLPC     H11A     HAL2     0.900000E-01   1.00800           0
      3529 MEMB     33       SLPC     H11B     HAL2     0.900000E-01   1.00800           0
      3530 MEMB     33       SLPC     P        PL        1.50000       30.9740           0
      3531 MEMB     33       SLPC     O13      O2L     -0.780000       15.9994           0
      3532 MEMB     33       SLPC     O14      O2L     -0.780000       15.9994           0
      3533 MEMB     33       SLPC     O12      OSLP    -0.570000       15.9994           0
      3534 MEMB     33       SLPC     O11      OSLP    -0.570000       15.9994           0
      3535 MEMB     33       SLPC     C1       CTL2    -0.800000E-01   12.0110           0
      3536 MEMB     33       SLPC     HA       HAL2     0.900000E-01   1.00800           0
      3537 MEMB     33       SLPC     HB       HAL2     0.900000E-01   1.00800           0
      3538 MEMB     33       SLPC     C2       CTL1     0.170000       12.0110           0
      3539 MEMB     33       SLPC     HS       HAL1     0.900000E-01   1.00800           0
      3540 MEMB     33       SLPC     O21      OSL     -0.490000       15.9994           0
      3541 MEMB     33       SLPC     C21      CL       0.900000       12.0110           0
      3542 MEMB     33       SLPC     O22      OBL     -0.630000       15.9994           0
      3543 MEMB     33       SLPC     C22      CTL2    -0.220000       12.0110           0
      3544 MEMB     33       SLPC     H2R      HAL2     0.900000E-01   1.00800           0
      3545 MEMB     33       SLPC     H2S      HAL2     0.900000E-01   1.00800           0
      3546 MEMB     33       SLPC     C3       CTL2     0.800000E-01   12.0110           0
      3547 MEMB     33       SLPC     HX       HAL2     0.900000E-01   1.00800           0
      3548 MEMB     33       SLPC     HY       HAL2     0.900000E-01   1.00800           0
      3549 MEMB     33       SLPC     O31      OSL     -0.490000       15.9994           0
      3550 MEMB     33       SLPC     C31      CL       0.900000       12.0110           0
      3551 MEMB     33       SLPC     O32      OBL     -0.630000       15.9994           0
      3552 MEMB     33       SLPC     C32      CTL2    -0.220000       12.0110           0
      3553 MEMB     33       SLPC     H2X      HAL2     0.900000E-01   1.00800           0
      3554 MEMB     33       SLPC     H2Y      HAL2     0.900000E-01   1.00800           0
      3555 MEMB     33       SLPC     C23      CTL2    -0.180000       12.0110           0
      3556 MEMB     33       SLPC     H3R      HAL2     0.900000E-01   1.00800           0
      3557 MEMB     33       SLPC     H3S      HAL2     0.900000E-01   1.00800           0
      3558 MEMB     33       SLPC     C24      CTL2    -0.180000       12.0110           0
      3559 MEMB     33       SLPC     H4R      HAL2     0.900000E-01   1.00800           0
      3560 MEMB     33       SLPC     H4S      HAL2     0.900000E-01   1.00800           0
      3561 MEMB     33       SLPC     C25      CTL2    -0.180000       12.0110           0
      3562 MEMB     33       SLPC     H5R      HAL2     0.900000E-01   1.00800           0
      3563 MEMB     33       SLPC     H5S      HAL2     0.900000E-01   1.00800           0
      3564 MEMB     33       SLPC     C26      CTL2    -0.180000       12.0110           0
      3565 MEMB     33       SLPC     H6R      HAL2     0.900000E-01   1.00800           0
      3566 MEMB     33       SLPC     H6S      HAL2     0.900000E-01   1.00800           0
      3567 MEMB     33       SLPC     C27      CTL2    -0.180000       12.0110           0
      3568 MEMB     33       SLPC     H7R      HAL2     0.900000E-01   1.00800           0
      3569 MEMB     33       SLPC     H7S      HAL2     0.900000E-01   1.00800           0
      3570 MEMB     33       SLPC     C28      CTL2    -0.180000       12.0110           0
      3571 MEMB     33       SLPC     H8R      HAL2     0.900000E-01   1.00800           0
      3572 MEMB     33       SLPC     H8S      HAL2     0.900000E-01   1.00800           0
      3573 MEMB     33       SLPC     C29      CEL1    -0.150000       12.0110           0
      3574 MEMB     33       SLPC     H9R      HEL1     0.150000       1.00800           0
      3575 MEMB     33       SLPC     C210     CEL1    -0.150000       12.0110           0
      3576 MEMB     33       SLPC     H10R     HEL1     0.150000       1.00800           0
      3577 MEMB     33       SLPC     C211     CTL2    -0.180000       12.0110           0
      3578 MEMB     33       SLPC     H11R     HAL2     0.900000E-01   1.00800           0
      3579 MEMB     33       SLPC     H11S     HAL2     0.900000E-01   1.00800           0
      3580 MEMB     33       SLPC     C212     CEL1    -0.150000       12.0110           0
      3581 MEMB     33       SLPC     H12R     HEL1     0.150000       1.00800           0
      3582 MEMB     33       SLPC     C213     CEL1    -0.150000       12.0110           0
      3583 MEMB     33       SLPC     H13R     HEL1     0.150000       1.00800           0
      3584 MEMB     33       SLPC     C214     CTL2    -0.180000       12.0110           0
      3585 MEMB     33       SLPC     H14R     HAL2     0.900000E-01   1.00800           0
      3586 MEMB     33       SLPC     H14S     HAL2     0.900000E-01   1.00800           0
      3587 MEMB     33       SLPC     C215     CTL2    -0.180000       12.0110           0
      3588 MEMB     33       SLPC     H15R     HAL2     0.900000E-01   1.00800           0
      3589 MEMB     33       SLPC     H15S     HAL2     0.900000E-01   1.00800           0
      3590 MEMB     33       SLPC     C216     CTL2    -0.180000       12.0110           0
      3591 MEMB     33       SLPC     H16R     HAL2     0.900000E-01   1.00800           0
      3592 MEMB     33       SLPC     H16S     HAL2     0.900000E-01   1.00800           0
      3593 MEMB     33       SLPC     C217     CTL2    -0.180000       12.0110           0
      3594 MEMB     33       SLPC     H17R     HAL2     0.900000E-01   1.00800           0
      3595 MEMB     33       SLPC     H17S     HAL2     0.900000E-01   1.00800           0
      3596 MEMB     33       SLPC     C218     CTL3    -0.270000       12.0110           0
      3597 MEMB     33       SLPC     H18R     HAL3     0.900000E-01   1.00800           0
      3598 MEMB     33       SLPC     H18S     HAL3     0.900000E-01   1.00800           0
      3599 MEMB     33       SLPC     H18T     HAL3     0.900000E-01   1.00800           0
      3600 MEMB     33       SLPC     C33      CTL2    -0.180000       12.0110           0
      3601 MEMB     33       SLPC     H3X      HAL2     0.900000E-01   1.00800           0
      3602 MEMB     33       SLPC     H3Y      HAL2     0.900000E-01   1.00800           0
      3603 MEMB     33       SLPC     C34      CTL2    -0.180000       12.0110           0
      3604 MEMB     33       SLPC     H4X      HAL2     0.900000E-01   1.00800           0
      3605 MEMB     33       SLPC     H4Y      HAL2     0.900000E-01   1.00800           0
      3606 MEMB     33       SLPC     C35      CTL2    -0.180000       12.0110           0
      3607 MEMB     33       SLPC     H5X      HAL2     0.900000E-01   1.00800           0
      3608 MEMB     33       SLPC     H5Y      HAL2     0.900000E-01   1.00800           0
      3609 MEMB     33       SLPC     C36      CTL2    -0.180000       12.0110           0
      3610 MEMB     33       SLPC     H6X      HAL2     0.900000E-01   1.00800           0
      3611 MEMB     33       SLPC     H6Y      HAL2     0.900000E-01   1.00800           0
      3612 MEMB     33       SLPC     C37      CTL2    -0.180000       12.0110           0
      3613 MEMB     33       SLPC     H7X      HAL2     0.900000E-01   1.00800           0
      3614 MEMB     33       SLPC     H7Y      HAL2     0.900000E-01   1.00800           0
      3615 MEMB     33       SLPC     C38      CTL2    -0.180000       12.0110           0
      3616 MEMB     33       SLPC     H8X      HAL2     0.900000E-01   1.00800           0
      3617 MEMB     33       SLPC     H8Y      HAL2     0.900000E-01   1.00800           0
      3618 MEMB     33       SLPC     C39      CTL2    -0.180000       12.0110           0
      3619 MEMB     33       SLPC     H9X      HAL2     0.900000E-01   1.00800           0
      3620 MEMB     33       SLPC     H9Y      HAL2     0.900000E-01   1.00800           0
      3621 MEMB     33       SLPC     C310     CTL2    -0.180000       12.0110           0
      3622 MEMB     33       SLPC     H10X     HAL2     0.900000E-01   1.00800           0
      3623 MEMB     33       SLPC     H10Y     HAL2     0.900000E-01   1.00800           0
      3624 MEMB     33       SLPC     C311     CTL2    -0.180000       12.0110           0
      3625 MEMB     33       SLPC     H11X     HAL2     0.900000E-01   1.00800           0
      3626 MEMB     33       SLPC     H11Y     HAL2     0.900000E-01   1.00800           0
      3627 MEMB     33       SLPC     C312     CTL2    -0.180000       12.0110           0
      3628 MEMB     33       SLPC     H12X     HAL2     0.900000E-01   1.00800           0
      3629 MEMB     33       SLPC     H12Y     HAL2     0.900000E-01   1.00800           0
      3630 MEMB     33       SLPC     C313     CTL2    -0.180000       12.0110           0
      3631 MEMB     33       SLPC     H13X     HAL2     0.900000E-01   1.00800           0
      3632 MEMB     33       SLPC     H13Y     HAL2     0.900000E-01   1.00800           0
      3633 MEMB     33       SLPC     C314     CTL2    -0.180000       12.0110           0
      3634 MEMB     33       SLPC     H14X     HAL2     0.900000E-01   1.00800           0
      3635 MEMB     33       SLPC     H14Y     HAL2     0.900000E-01   1.00800           0
      3636 MEMB     33       SLPC     C315     CTL2    -0.180000       12.0110           0
      3637 MEMB     33       SLPC     H15X     HAL2     0.900000E-01   1.00800           0
      3638 MEMB     33       SLPC     H15Y     HAL2     0.900000E-01   1.00800           0
      3639 MEMB     33       SLPC     C316     CTL2    -0.180000       12.0110           0
      3640 MEMB     33       SLPC     H16X     HAL2     0.900000E-01   1.00800           0
      3641 MEMB     33       SLPC     H16Y     HAL2     0.900000E-01   1.00800           0
      3642 MEMB     33       SLPC     C317     CTL2    -0.180000       12.0110           0
      3643 MEMB     33       SLPC     H17X     HAL2     0.900000E-01   1.00800           0
      3644 MEMB     33       SLPC     H17Y     HAL2     0.900000E-01   1.00800           0
      3645 MEMB     33       SLPC     C318     CTL3    -0.270000       12.0110           0
      3646 MEMB     33       SLPC     H18X     HAL3     0.900000E-01   1.00800           0
      3647 MEMB     33       SLPC     H18Y     HAL3     0.900000E-01   1.00800           0
      3648 MEMB     33       SLPC     H18Z     HAL3     0.900000E-01   1.00800           0
      3649 MEMB     34       CHL1     C3       CRL1     0.140000       12.0110           0
      3650 MEMB     34       CHL1     H3       HGA1     0.900000E-01   1.00800           0
      3651 MEMB     34       CHL1     O3       OHL     -0.660000       15.9994           0
      3652 MEMB     34       CHL1     H3'      HOL      0.430000       1.00800           0
      3653 MEMB     34       CHL1     C4       CRL2    -0.180000       12.0110           0
      3654 MEMB     34       CHL1     H4A      HGA2     0.900000E-01   1.00800           0
      3655 MEMB     34       CHL1     H4B      HGA2     0.900000E-01   1.00800           0
      3656 MEMB     34       CHL1     C5       CEL1      0.00000       12.0110           0
      3657 MEMB     34       CHL1     C6       CEL1    -0.150000       12.0110           0
      3658 MEMB     34       CHL1     H6       HEL1     0.150000       1.00800           0
      3659 MEMB     34       CHL1     C7       CRL2    -0.180000       12.0110           0
      3660 MEMB     34       CHL1     H7A      HGA2     0.900000E-01   1.00800           0
      3661 MEMB     34       CHL1     H7B      HGA2     0.900000E-01   1.00800           0
      3662 MEMB     34       CHL1     C8       CRL1    -0.900000E-01   12.0110           0
      3663 MEMB     34       CHL1     H8       HGA1     0.900000E-01   1.00800           0
      3664 MEMB     34       CHL1     C14      CRL1    -0.900000E-01   12.0110           0
      3665 MEMB     34       CHL1     H14      HGA1     0.900000E-01   1.00800           0
      3666 MEMB     34       CHL1     C15      CRL2    -0.180000       12.0110           0
      3667 MEMB     34       CHL1     H15A     HGA2     0.900000E-01   1.00800           0
      3668 MEMB     34       CHL1     H15B     HGA2     0.900000E-01   1.00800           0
      3669 MEMB     34       CHL1     C16      CRL2    -0.180000       12.0110           0
      3670 MEMB     34       CHL1     H16A     HGA2     0.900000E-01   1.00800           0
      3671 MEMB     34       CHL1     H16B     HGA2     0.900000E-01   1.00800           0
      3672 MEMB     34       CHL1     C17      CRL1    -0.900000E-01   12.0110           0
      3673 MEMB     34       CHL1     H17      HGA1     0.900000E-01   1.00800           0
      3674 MEMB     34       CHL1     C13      CRL1      0.00000       12.0110           0
      3675 MEMB     34       CHL1     C18      CTL3    -0.270000       12.0110           0
      3676 MEMB     34       CHL1     H18A     HAL3     0.900000E-01   1.00800           0
      3677 MEMB     34       CHL1     H18B     HAL3     0.900000E-01   1.00800           0
      3678 MEMB     34       CHL1     H18C     HAL3     0.900000E-01   1.00800           0
      3679 MEMB     34       CHL1     C12      CRL2    -0.180000       12.0110           0
      3680 MEMB     34       CHL1     H12A     HGA2     0.900000E-01   1.00800           0
      3681 MEMB     34       CHL1     H12B     HGA2     0.900000E-01   1.00800           0
      3682 MEMB     34       CHL1     C11      CRL2    -0.180000       12.0110           0
      3683 MEMB     34       CHL1     H11A     HGA2     0.900000E-01   1.00800           0
      3684 MEMB     34       CHL1     H11B     HGA2     0.900000E-01   1.00800           0
      3685 MEMB     34       CHL1     C9       CRL1    -0.900000E-01   12.0110           0
      3686 MEMB     34       CHL1     H9       HGA1     0.900000E-01   1.00800           0
      3687 MEMB     34       CHL1     C10      CRL1      0.00000       12.0110           0
      3688 MEMB     34       CHL1     C19      CTL3    -0.270000       12.0110           0
      3689 MEMB     34       CHL1     H19A     HAL3     0.900000E-01   1.00800           0
      3690 MEMB     34       CHL1     H19B     HAL3     0.900000E-01   1.00800           0
      3691 MEMB     34       CHL1     H19C     HAL3     0.900000E-01   1.00800           0
      3692 MEMB     34       CHL1     C1       CRL2    -0.180000       12.0110           0
      3693 MEMB     34       CHL1     H1A      HGA2     0.900000E-01   1.00800           0
      3694 MEMB     34       CHL1     H1B      HGA2     0.900000E-01   1.00800           0
      3695 MEMB     34       CHL1     C2       CRL2    -0.180000       12.0110           0
      3696 MEMB     34       CHL1     H2A      HGA2     0.900000E-01   1.00800           0
      3697 MEMB     34       CHL1     H2B      HGA2     0.900000E-01   1.00800           0
      3698 MEMB     34       CHL1     C20      CTL1    -0.900000E-01   12.0110           0
      3699 MEMB     34       CHL1     H20      HAL1     0.900000E-01   1.00800           0
      3700 MEMB     34       CHL1     C21      CTL3    -0.270000       12.0110           0
      3701 MEMB     34       CHL1     H21A     HAL3     0.900000E-01   1.00800           0
      3702 MEMB     34       CHL1     H21B     HAL3     0.900000E-01   1.00800           0
      3703 MEMB     34       CHL1     H21C     HAL3     0.900000E-01   1.00800           0
      3704 MEMB     34       CHL1     C22      CTL2    -0.180000       12.0110           0
      3705 MEMB     34       CHL1     H22A     HAL2     0.900000E-01   1.00800           0
      3706 MEMB     34       CHL1     H22B     HAL2     0.900000E-01   1.00800           0
      3707 MEMB     34       CHL1     C23      CTL2    -0.180000       12.0110           0
      3708 MEMB     34       CHL1     H23A     HAL2     0.900000E-01   1.00800           0
      3709 MEMB     34       CHL1     H23B     HAL2     0.900000E-01   1.00800           0
      3710 MEMB     34       CHL1     C24      CTL2    -0.180000       12.0110           0
      3711 MEMB     34       CHL1     H24A     HAL2     0.900000E-01   1.00800           0
      3712 MEMB     34       CHL1     H24B     HAL2     0.900000E-01   1.00800           0
      3713 MEMB     34       CHL1     C25      CTL1    -0.900000E-01   12.0110           0
      3714 MEMB     34       CHL1     H25      HAL1     0.900000E-01   1.00800           0
      3715 MEMB     34       CHL1     C26      CTL3    -0.270000       12.0110           0
      3716 MEMB     34       CHL1     H26A     HAL3     0.900000E-01   1.00800           0
      3717 MEMB     34       CHL1     H26B     HAL3     0.900000E-01   1.00800           0
      3718 MEMB     34       CHL1     H26C     HAL3     0.900000E-01   1.00800           0
      3719 MEMB     34       CHL1     C27      CTL3    -0.270000       12.0110           0
      3720 MEMB     34       CHL1     H27A     HAL3     0.900000E-01   1.00800           0
      3721 MEMB     34       CHL1     H27B     HAL3     0.900000E-01   1.00800           0
      3722 MEMB     34       CHL1     H27C     HAL3     0.900000E-01   1.00800           0
      3723 MEMB     35       CHL1     C3       CRL1     0.140000       12.0110           0
      3724 MEMB     35       CHL1     H3       HGA1     0.900000E-01   1.00800           0
      3725 MEMB     35       CHL1     O3       OHL     -0.660000       15.9994           0
      3726 MEMB     35       CHL1     H3'      HOL      0.430000       1.00800           0
      3727 MEMB     35       CHL1     C4       CRL2    -0.180000       12.0110           0
      3728 MEMB     35       CHL1     H4A      HGA2     0.900000E-01   1.00800           0
      3729 MEMB     35       CHL1     H4B      HGA2     0.900000E-01   1.00800           0
      3730 MEMB     35       CHL1     C5       CEL1      0.00000       12.0110           0
      3731 MEMB     35       CHL1     C6       CEL1    -0.150000       12.0110           0
      3732 MEMB     35       CHL1     H6       HEL1     0.150000       1.00800           0
      3733 MEMB     35       CHL1     C7       CRL2    -0.180000       12.0110           0
      3734 MEMB     35       CHL1     H7A      HGA2     0.900000E-01   1.00800           0
      3735 MEMB     35       CHL1     H7B      HGA2     0.900000E-01   1.00800           0
      3736 MEMB     35       CHL1     C8       CRL1    -0.900000E-01   12.0110           0
      3737 MEMB     35       CHL1     H8       HGA1     0.900000E-01   1.00800           0
      3738 MEMB     35       CHL1     C14      CRL1    -0.900000E-01   12.0110           0
      3739 MEMB     35       CHL1     H14      HGA1     0.900000E-01   1.00800           0
      3740 MEMB     35       CHL1     C15      CRL2    -0.180000       12.0110           0
      3741 MEMB     35       CHL1     H15A     HGA2     0.900000E-01   1.00800           0
      3742 MEMB     35       CHL1     H15B     HGA2     0.900000E-01   1.00800           0
      3743 MEMB     35       CHL1     C16      CRL2    -0.180000       12.0110           0
      3744 MEMB     35       CHL1     H16A     HGA2     0.900000E-01   1.00800           0
      3745 MEMB     35       CHL1     H16B     HGA2     0.900000E-01   1.00800           0
      3746 MEMB     35       CHL1     C17      CRL1    -0.900000E-01   12.0110           0
      3747 MEMB     35       CHL1     H17      HGA1     0.900000E-01   1.00800           0
      3748 MEMB     35       CHL1     C13      CRL1      0.00000       12.0110           0
      3749 MEMB     35       CHL1     C18      CTL3    -0.270000       12.0110           0
      3750 MEMB     35       CHL1     H18A     HAL3     0.900000E-01   1.00800           0
      3751 MEMB     35       CHL1     H18B     HAL3     0.900000E-01   1.00800           0
      3752 MEMB     35       CHL1     H18C     HAL3     0.900000E-01   1.00800           0
      3753 MEMB     35       CHL1     C12      CRL2    -0.180000       12.0110           0
      3754 MEMB     35       CHL1     H12A     HGA2     0.900000E-01   1.00800           0
      3755 MEMB     35       CHL1     H12B     HGA2     0.900000E-01   1.00800           0
      3756 MEMB     35       CHL1     C11      CRL2    -0.180000       12.0110           0
      3757 MEMB     35       CHL1     H11A     HGA2     0.900000E-01   1.00800           0
      3758 MEMB     35       CHL1     H11B     HGA2     0.900000E-01   1.00800           0
      3759 MEMB     35       CHL1     C9       CRL1    -0.900000E-01   12.0110           0
      3760 MEMB     35       CHL1     H9       HGA1     0.900000E-01   1.00800           0
      3761 MEMB     35       CHL1     C10      CRL1      0.00000       12.0110           0
      3762 MEMB     35       CHL1     C19      CTL3    -0.270000       12.0110           0
      3763 MEMB     35       CHL1     H19A     HAL3     0.900000E-01   1.00800           0
      3764 MEMB     35       CHL1     H19B     HAL3     0.900000E-01   1.00800           0
      3765 MEMB     35       CHL1     H19C     HAL3     0.900000E-01   1.00800           0
      3766 MEMB     35       CHL1     C1       CRL2    -0.180000       12.0110           0
      3767 MEMB     35       CHL1     H1A      HGA2     0.900000E-01   1.00800           0
      3768 MEMB     35       CHL1     H1B      HGA2     0.900000E-01   1.00800           0
      3769 MEMB     35       CHL1     C2       CRL2    -0.180000       12.0110           0
      3770 MEMB     35       CHL1     H2A      HGA2     0.900000E-01   1.00800           0
      3771 MEMB     35       CHL1     H2B      HGA2     0.900000E-01   1.00800           0
      3772 MEMB     35       CHL1     C20      CTL1    -0.900000E-01   12.0110           0
      3773 MEMB     35       CHL1     H20      HAL1     0.900000E-01   1.00800           0
      3774 MEMB     35       CHL1     C21      CTL3    -0.270000       12.0110           0
      3775 MEMB     35       CHL1     H21A     HAL3     0.900000E-01   1.00800           0
      3776 MEMB     35       CHL1     H21B     HAL3     0.900000E-01   1.00800           0
      3777 MEMB     35       CHL1     H21C     HAL3     0.900000E-01   1.00800           0
      3778 MEMB     35       CHL1     C22      CTL2    -0.180000       12.0110           0
      3779 MEMB     35       CHL1     H22A     HAL2     0.900000E-01   1.00800           0
      3780 MEMB     35       CHL1     H22B     HAL2     0.900000E-01   1.00800           0
      3781 MEMB     35       CHL1     C23      CTL2    -0.180000       12.0110           0
      3782 MEMB     35       CHL1     H23A     HAL2     0.900000E-01   1.00800           0
      3783 MEMB     35       CHL1     H23B     HAL2     0.900000E-01   1.00800           0
      3784 MEMB     35       CHL1     C24      CTL2    -0.180000       12.0110           0
      3785 MEMB     35       CHL1     H24A     HAL2     0.900000E-01   1.00800           0
      3786 MEMB     35       CHL1     H24B     HAL2     0.900000E-01   1.00800           0
      3787 MEMB     35       CHL1     C25      CTL1    -0.900000E-01   12.0110           0
      3788 MEMB     35       CHL1     H25      HAL1     0.900000E-01   1.00800           0
      3789 MEMB     35       CHL1     C26      CTL3    -0.270000       12.0110           0
      3790 MEMB     35       CHL1     H26A     HAL3     0.900000E-01   1.00800           0
      3791 MEMB     35       CHL1     H26B     HAL3     0.900000E-01   1.00800           0
      3792 MEMB     35       CHL1     H26C     HAL3     0.900000E-01   1.00800           0
      3793 MEMB     35       CHL1     C27      CTL3    -0.270000       12.0110           0
      3794 MEMB     35       CHL1     H27A     HAL3     0.900000E-01   1.00800           0
      3795 MEMB     35       CHL1     H27B     HAL3     0.900000E-01   1.00800           0
      3796 MEMB     35       CHL1     H27C     HAL3     0.900000E-01   1.00800           0
      3797 MEMB     36       SAPS     N        NH3L    -0.300000       14.0070           0
      3798 MEMB     36       SAPS     HN1      HCL      0.330000       1.00800           0
      3799 MEMB     36       SAPS     HN2      HCL      0.330000       1.00800           0
      3800 MEMB     36       SAPS     HN3      HCL      0.330000       1.00800           0
      3801 MEMB     36       SAPS     C12      CTL1     0.210000       12.0110           0
      3802 MEMB     36       SAPS     H12A     HBL      0.100000       1.00800           0
      3803 MEMB     36       SAPS     C13      CCL      0.340000       12.0110           0
      3804 MEMB     36       SAPS     O13A     OCL     -0.670000       15.9994           0
      3805 MEMB     36       SAPS     O13B     OCL     -0.670000       15.9994           0
      3806 MEMB     36       SAPS     C11      CTL2    -0.800000E-01   12.0110           0
      3807 MEMB     36       SAPS     H11A     HAL2     0.900000E-01   1.00800           0
      3808 MEMB     36       SAPS     H11B     HAL2     0.900000E-01   1.00800           0
      3809 MEMB     36       SAPS     P        PL        1.50000       30.9740           0
      3810 MEMB     36       SAPS     O13      O2L     -0.780000       15.9994           0
      3811 MEMB     36       SAPS     O14      O2L     -0.780000       15.9994           0
      3812 MEMB     36       SAPS     O12      OSLP    -0.570000       15.9994           0
      3813 MEMB     36       SAPS     O11      OSLP    -0.570000       15.9994           0
      3814 MEMB     36       SAPS     C1       CTL2    -0.800000E-01   12.0110           0
      3815 MEMB     36       SAPS     HA       HAL2     0.900000E-01   1.00800           0
      3816 MEMB     36       SAPS     HB       HAL2     0.900000E-01   1.00800           0
      3817 MEMB     36       SAPS     C2       CTL1     0.170000       12.0110           0
      3818 MEMB     36       SAPS     HS       HAL1     0.900000E-01   1.00800           0
      3819 MEMB     36       SAPS     O21      OSL     -0.490000       15.9994           0
      3820 MEMB     36       SAPS     C21      CL       0.900000       12.0110           0
      3821 MEMB     36       SAPS     O22      OBL     -0.630000       15.9994           0
      3822 MEMB     36       SAPS     C22      CTL2    -0.220000       12.0110           0
      3823 MEMB     36       SAPS     H2R      HAL2     0.900000E-01   1.00800           0
      3824 MEMB     36       SAPS     H2S      HAL2     0.900000E-01   1.00800           0
      3825 MEMB     36       SAPS     C3       CTL2     0.800000E-01   12.0110           0
      3826 MEMB     36       SAPS     HX       HAL2     0.900000E-01   1.00800           0
      3827 MEMB     36       SAPS     HY       HAL2     0.900000E-01   1.00800           0
      3828 MEMB     36       SAPS     O31      OSL     -0.490000       15.9994           0
      3829 MEMB     36       SAPS     C31      CL       0.900000       12.0110           0
      3830 MEMB     36       SAPS     O32      OBL     -0.630000       15.9994           0
      3831 MEMB     36       SAPS     C32      CTL2    -0.220000       12.0110           0
      3832 MEMB     36       SAPS     H2X      HAL2     0.900000E-01   1.00800           0
      3833 MEMB     36       SAPS     H2Y      HAL2     0.900000E-01   1.00800           0
      3834 MEMB     36       SAPS     C23      CTL2    -0.180000       12.0110           0
      3835 MEMB     36       SAPS     H3R      HAL2     0.900000E-01   1.00800           0
      3836 MEMB     36       SAPS     H3S      HAL2     0.900000E-01   1.00800           0
      3837 MEMB     36       SAPS     C24      CTL2    -0.180000       12.0110           0
      3838 MEMB     36       SAPS     H4R      HAL2     0.900000E-01   1.00800           0
      3839 MEMB     36       SAPS     H4S      HAL2     0.900000E-01   1.00800           0
      3840 MEMB     36       SAPS     C25      CEL1    -0.150000       12.0110           0
      3841 MEMB     36       SAPS     H5R      HEL1     0.150000       1.00800           0
      3842 MEMB     36       SAPS     C26      CEL1    -0.150000       12.0110           0
      3843 MEMB     36       SAPS     H6R      HEL1     0.150000       1.00800           0
      3844 MEMB     36       SAPS     C27      CTL2    -0.180000       12.0110           0
      3845 MEMB     36       SAPS     H7R      HAL2     0.900000E-01   1.00800           0
      3846 MEMB     36       SAPS     H7S      HAL2     0.900000E-01   1.00800           0
      3847 MEMB     36       SAPS     C28      CEL1    -0.150000       12.0110           0
      3848 MEMB     36       SAPS     H8R      HEL1     0.150000       1.00800           0
      3849 MEMB     36       SAPS     C29      CEL1    -0.150000       12.0110           0
      3850 MEMB     36       SAPS     H9R      HEL1     0.150000       1.00800           0
      3851 MEMB     36       SAPS     C210     CTL2    -0.180000       12.0110           0
      3852 MEMB     36       SAPS     H10R     HAL2     0.900000E-01   1.00800           0
      3853 MEMB     36       SAPS     H10S     HAL2     0.900000E-01   1.00800           0
      3854 MEMB     36       SAPS     C211     CEL1    -0.150000       12.0110           0
      3855 MEMB     36       SAPS     H11R     HEL1     0.150000       1.00800           0
      3856 MEMB     36       SAPS     C212     CEL1    -0.150000       12.0110           0
      3857 MEMB     36       SAPS     H12R     HEL1     0.150000       1.00800           0
      3858 MEMB     36       SAPS     C213     CTL2    -0.180000       12.0110           0
      3859 MEMB     36       SAPS     H13R     HAL2     0.900000E-01   1.00800           0
      3860 MEMB     36       SAPS     H13S     HAL2     0.900000E-01   1.00800           0
      3861 MEMB     36       SAPS     C214     CEL1    -0.150000       12.0110           0
      3862 MEMB     36       SAPS     H14R     HEL1     0.150000       1.00800           0
      3863 MEMB     36       SAPS     C215     CEL1    -0.150000       12.0110           0
      3864 MEMB     36       SAPS     H15R     HEL1     0.150000       1.00800           0
      3865 MEMB     36       SAPS     C216     CTL2    -0.180000       12.0110           0
      3866 MEMB     36       SAPS     H16R     HAL2     0.900000E-01   1.00800           0
      3867 MEMB     36       SAPS     H16S     HAL2     0.900000E-01   1.00800           0
      3868 MEMB     36       SAPS     C217     CTL2    -0.180000       12.0110           0
      3869 MEMB     36       SAPS     H17R     HAL2     0.900000E-01   1.00800           0
      3870 MEMB     36       SAPS     H17S     HAL2     0.900000E-01   1.00800           0
      3871 MEMB     36       SAPS     C218     CTL2    -0.180000       12.0110           0
      3872 MEMB     36       SAPS     H18R     HAL2     0.900000E-01   1.00800           0
      3873 MEMB     36       SAPS     H18S     HAL2     0.900000E-01   1.00800           0
      3874 MEMB     36       SAPS     C219     CTL2    -0.180000       12.0110           0
      3875 MEMB     36       SAPS     H19R     HAL2     0.900000E-01   1.00800           0
      3876 MEMB     36       SAPS     H19S     HAL2     0.900000E-01   1.00800           0
      3877 MEMB     36       SAPS     C220     CTL3    -0.270000       12.0110           0
      3878 MEMB     36       SAPS     H20R     HAL3     0.900000E-01   1.00800           0
      3879 MEMB     36       SAPS     H20S     HAL3     0.900000E-01   1.00800           0
      3880 MEMB     36       SAPS     H20T     HAL3     0.900000E-01   1.00800           0
      3881 MEMB     36       SAPS     C33      CTL2    -0.180000       12.0110           0
      3882 MEMB     36       SAPS     H3X      HAL2     0.900000E-01   1.00800           0
      3883 MEMB     36       SAPS     H3Y      HAL2     0.900000E-01   1.00800           0
      3884 MEMB     36       SAPS     C34      CTL2    -0.180000       12.0110           0
      3885 MEMB     36       SAPS     H4X      HAL2     0.900000E-01   1.00800           0
      3886 MEMB     36       SAPS     H4Y      HAL2     0.900000E-01   1.00800           0
      3887 MEMB     36       SAPS     C35      CTL2    -0.180000       12.0110           0
      3888 MEMB     36       SAPS     H5X      HAL2     0.900000E-01   1.00800           0
      3889 MEMB     36       SAPS     H5Y      HAL2     0.900000E-01   1.00800           0
      3890 MEMB     36       SAPS     C36      CTL2    -0.180000       12.0110           0
      3891 MEMB     36       SAPS     H6X      HAL2     0.900000E-01   1.00800           0
      3892 MEMB     36       SAPS     H6Y      HAL2     0.900000E-01   1.00800           0
      3893 MEMB     36       SAPS     C37      CTL2    -0.180000       12.0110           0
      3894 MEMB     36       SAPS     H7X      HAL2     0.900000E-01   1.00800           0
      3895 MEMB     36       SAPS     H7Y      HAL2     0.900000E-01   1.00800           0
      3896 MEMB     36       SAPS     C38      CTL2    -0.180000       12.0110           0
      3897 MEMB     36       SAPS     H8X      HAL2     0.900000E-01   1.00800           0
      3898 MEMB     36       SAPS     H8Y      HAL2     0.900000E-01   1.00800           0
      3899 MEMB     36       SAPS     C39      CTL2    -0.180000       12.0110           0
      3900 MEMB     36       SAPS     H9X      HAL2     0.900000E-01   1.00800           0
      3901 MEMB     36       SAPS     H9Y      HAL2     0.900000E-01   1.00800           0
      3902 MEMB     36       SAPS     C310     CTL2    -0.180000       12.0110           0
      3903 MEMB     36       SAPS     H10X     HAL2     0.900000E-01   1.00800           0
      3904 MEMB     36       SAPS     H10Y     HAL2     0.900000E-01   1.00800           0
      3905 MEMB     36       SAPS     C311     CTL2    -0.180000       12.0110           0
      3906 MEMB     36       SAPS     H11X     HAL2     0.900000E-01   1.00800           0
      3907 MEMB     36       SAPS     H11Y     HAL2     0.900000E-01   1.00800           0
      3908 MEMB     36       SAPS     C312     CTL2    -0.180000       12.0110           0
      3909 MEMB     36       SAPS     H12X     HAL2     0.900000E-01   1.00800           0
      3910 MEMB     36       SAPS     H12Y     HAL2     0.900000E-01   1.00800           0
      3911 MEMB     36       SAPS     C313     CTL2    -0.180000       12.0110           0
      3912 MEMB     36       SAPS     H13X     HAL2     0.900000E-01   1.00800           0
      3913 MEMB     36       SAPS     H13Y     HAL2     0.900000E-01   1.00800           0
      3914 MEMB     36       SAPS     C314     CTL2    -0.180000       12.0110           0
      3915 MEMB     36       SAPS     H14X     HAL2     0.900000E-01   1.00800           0
      3916 MEMB     36       SAPS     H14Y     HAL2     0.900000E-01   1.00800           0
      3917 MEMB     36       SAPS     C315     CTL2    -0.180000       12.0110           0
      3918 MEMB     36       SAPS     H15X     HAL2     0.900000E-01   1.00800           0
      3919 MEMB     36       SAPS     H15Y     HAL2     0.900000E-01   1.00800           0
      3920 MEMB     36       SAPS     C316     CTL2    -0.180000       12.0110           0
      3921 MEMB     36       SAPS     H16X     HAL2     0.900000E-01   1.00800           0
      3922 MEMB     36       SAPS     H16Y     HAL2     0.900000E-01   1.00800           0
      3923 MEMB     36       SAPS     C317     CTL2    -0.180000       12.0110           0
      3924 MEMB     36       SAPS     H17X     HAL2     0.900000E-01   1.00800           0
      3925 MEMB     36       SAPS     H17Y     HAL2     0.900000E-01   1.00800           0
      3926 MEMB     36       SAPS     C318     CTL3    -0.270000       12.0110           0
      3927 MEMB     36       SAPS     H18X     HAL3     0.900000E-01   1.00800           0
      3928 MEMB     36       SAPS     H18Y     HAL3     0.900000E-01   1.00800           0
      3929 MEMB     36       SAPS     H18Z     HAL3     0.900000E-01   1.00800           0
      3930 MEMB     37       SAPE     N        NH3L    -0.300000       14.0070           0
      3931 MEMB     37       SAPE     HN1      HCL      0.330000       1.00800           0
      3932 MEMB     37       SAPE     HN2      HCL      0.330000       1.00800           0
      3933 MEMB     37       SAPE     HN3      HCL      0.330000       1.00800           0
      3934 MEMB     37       SAPE     C12      CTL2     0.130000       12.0110           0
      3935 MEMB     37       SAPE     H12A     HAL2     0.900000E-01   1.00800           0
      3936 MEMB     37       SAPE     H12B     HAL2     0.900000E-01   1.00800           0
      3937 MEMB     37       SAPE     C11      CTL2    -0.800000E-01   12.0110           0
      3938 MEMB     37       SAPE     H11A     HAL2     0.900000E-01   1.00800           0
      3939 MEMB     37       SAPE     H11B     HAL2     0.900000E-01   1.00800           0
      3940 MEMB     37       SAPE     P        PL        1.50000       30.9740           0
      3941 MEMB     37       SAPE     O13      O2L     -0.780000       15.9994           0
      3942 MEMB     37       SAPE     O14      O2L     -0.780000       15.9994           0
      3943 MEMB     37       SAPE     O12      OSLP    -0.570000       15.9994           0
      3944 MEMB     37       SAPE     O11      OSLP    -0.570000       15.9994           0
      3945 MEMB     37       SAPE     C1       CTL2    -0.800000E-01   12.0110           0
      3946 MEMB     37       SAPE     HA       HAL2     0.900000E-01   1.00800           0
      3947 MEMB     37       SAPE     HB       HAL2     0.900000E-01   1.00800           0
      3948 MEMB     37       SAPE     C2       CTL1     0.170000       12.0110           0
      3949 MEMB     37       SAPE     HS       HAL1     0.900000E-01   1.00800           0
      3950 MEMB     37       SAPE     O21      OSL     -0.490000       15.9994           0
      3951 MEMB     37       SAPE     C21      CL       0.900000       12.0110           0
      3952 MEMB     37       SAPE     O22      OBL     -0.630000       15.9994           0
      3953 MEMB     37       SAPE     C22      CTL2    -0.220000       12.0110           0
      3954 MEMB     37       SAPE     H2R      HAL2     0.900000E-01   1.00800           0
      3955 MEMB     37       SAPE     H2S      HAL2     0.900000E-01   1.00800           0
      3956 MEMB     37       SAPE     C3       CTL2     0.800000E-01   12.0110           0
      3957 MEMB     37       SAPE     HX       HAL2     0.900000E-01   1.00800           0
      3958 MEMB     37       SAPE     HY       HAL2     0.900000E-01   1.00800           0
      3959 MEMB     37       SAPE     O31      OSL     -0.490000       15.9994           0
      3960 MEMB     37       SAPE     C31      CL       0.900000       12.0110           0
      3961 MEMB     37       SAPE     O32      OBL     -0.630000       15.9994           0
      3962 MEMB     37       SAPE     C32      CTL2    -0.220000       12.0110           0
      3963 MEMB     37       SAPE     H2X      HAL2     0.900000E-01   1.00800           0
      3964 MEMB     37       SAPE     H2Y      HAL2     0.900000E-01   1.00800           0
      3965 MEMB     37       SAPE     C23      CTL2    -0.180000       12.0110           0
      3966 MEMB     37       SAPE     H3R      HAL2     0.900000E-01   1.00800           0
      3967 MEMB     37       SAPE     H3S      HAL2     0.900000E-01   1.00800           0
      3968 MEMB     37       SAPE     C24      CTL2    -0.180000       12.0110           0
      3969 MEMB     37       SAPE     H4R      HAL2     0.900000E-01   1.00800           0
      3970 MEMB     37       SAPE     H4S      HAL2     0.900000E-01   1.00800           0
      3971 MEMB     37       SAPE     C25      CEL1    -0.150000       12.0110           0
      3972 MEMB     37       SAPE     H5R      HEL1     0.150000       1.00800           0
      3973 MEMB     37       SAPE     C26      CEL1    -0.150000       12.0110           0
      3974 MEMB     37       SAPE     H6R      HEL1     0.150000       1.00800           0
      3975 MEMB     37       SAPE     C27      CTL2    -0.180000       12.0110           0
      3976 MEMB     37       SAPE     H7R      HAL2     0.900000E-01   1.00800           0
      3977 MEMB     37       SAPE     H7S      HAL2     0.900000E-01   1.00800           0
      3978 MEMB     37       SAPE     C28      CEL1    -0.150000       12.0110           0
      3979 MEMB     37       SAPE     H8R      HEL1     0.150000       1.00800           0
      3980 MEMB     37       SAPE     C29      CEL1    -0.150000       12.0110           0
      3981 MEMB     37       SAPE     H9R      HEL1     0.150000       1.00800           0
      3982 MEMB     37       SAPE     C210     CTL2    -0.180000       12.0110           0
      3983 MEMB     37       SAPE     H10R     HAL2     0.900000E-01   1.00800           0
      3984 MEMB     37       SAPE     H10S     HAL2     0.900000E-01   1.00800           0
      3985 MEMB     37       SAPE     C211     CEL1    -0.150000       12.0110           0
      3986 MEMB     37       SAPE     H11R     HEL1     0.150000       1.00800           0
      3987 MEMB     37       SAPE     C212     CEL1    -0.150000       12.0110           0
      3988 MEMB     37       SAPE     H12R     HEL1     0.150000       1.00800           0
      3989 MEMB     37       SAPE     C213     CTL2    -0.180000       12.0110           0
      3990 MEMB     37       SAPE     H13R     HAL2     0.900000E-01   1.00800           0
      3991 MEMB     37       SAPE     H13S     HAL2     0.900000E-01   1.00800           0
      3992 MEMB     37       SAPE     C214     CEL1    -0.150000       12.0110           0
      3993 MEMB     37       SAPE     H14R     HEL1     0.150000       1.00800           0
      3994 MEMB     37       SAPE     C215     CEL1    -0.150000       12.0110           0
      3995 MEMB     37       SAPE     H15R     HEL1     0.150000       1.00800           0
      3996 MEMB     37       SAPE     C216     CTL2    -0.180000       12.0110           0
      3997 MEMB     37       SAPE     H16R     HAL2     0.900000E-01   1.00800           0
      3998 MEMB     37       SAPE     H16S     HAL2     0.900000E-01   1.00800           0
      3999 MEMB     37       SAPE     C217     CTL2    -0.180000       12.0110           0
      4000 MEMB     37       SAPE     H17R     HAL2     0.900000E-01   1.00800           0
      4001 MEMB     37       SAPE     H17S     HAL2     0.900000E-01   1.00800           0
      4002 MEMB     37       SAPE     C218     CTL2    -0.180000       12.0110           0
      4003 MEMB     37       SAPE     H18R     HAL2     0.900000E-01   1.00800           0
      4004 MEMB     37       SAPE     H18S     HAL2     0.900000E-01   1.00800           0
      4005 MEMB     37       SAPE     C219     CTL2    -0.180000       12.0110           0
      4006 MEMB     37       SAPE     H19R     HAL2     0.900000E-01   1.00800           0
      4007 MEMB     37       SAPE     H19S     HAL2     0.900000E-01   1.00800           0
      4008 MEMB     37       SAPE     C220     CTL3    -0.270000       12.0110           0
      4009 MEMB     37       SAPE     H20R     HAL3     0.900000E-01   1.00800           0
      4010 MEMB     37       SAPE     H20S     HAL3     0.900000E-01   1.00800           0
      4011 MEMB     37       SAPE     H20T     HAL3     0.900000E-01   1.00800           0
      4012 MEMB     37       SAPE     C33      CTL2    -0.180000       12.0110           0
      4013 MEMB     37       SAPE     H3X      HAL2     0.900000E-01   1.00800           0
      4014 MEMB     37       SAPE     H3Y      HAL2     0.900000E-01   1.00800           0
      4015 MEMB     37       SAPE     C34      CTL2    -0.180000       12.0110           0
      4016 MEMB     37       SAPE     H4X      HAL2     0.900000E-01   1.00800           0
      4017 MEMB     37       SAPE     H4Y      HAL2     0.900000E-01   1.00800           0
      4018 MEMB     37       SAPE     C35      CTL2    -0.180000       12.0110           0
      4019 MEMB     37       SAPE     H5X      HAL2     0.900000E-01   1.00800           0
      4020 MEMB     37       SAPE     H5Y      HAL2     0.900000E-01   1.00800           0
      4021 MEMB     37       SAPE     C36      CTL2    -0.180000       12.0110           0
      4022 MEMB     37       SAPE     H6X      HAL2     0.900000E-01   1.00800           0
      4023 MEMB     37       SAPE     H6Y      HAL2     0.900000E-01   1.00800           0
      4024 MEMB     37       SAPE     C37      CTL2    -0.180000       12.0110           0
      4025 MEMB     37       SAPE     H7X      HAL2     0.900000E-01   1.00800           0
      4026 MEMB     37       SAPE     H7Y      HAL2     0.900000E-01   1.00800           0
      4027 MEMB     37       SAPE     C38      CTL2    -0.180000       12.0110           0
      4028 MEMB     37       SAPE     H8X      HAL2     0.900000E-01   1.00800           0
      4029 MEMB     37       SAPE     H8Y      HAL2     0.900000E-01   1.00800           0
      4030 MEMB     37       SAPE     C39      CTL2    -0.180000       12.0110           0
      4031 MEMB     37       SAPE     H9X      HAL2     0.900000E-01   1.00800           0
      4032 MEMB     37       SAPE     H9Y      HAL2     0.900000E-01   1.00800           0
      4033 MEMB     37       SAPE     C310     CTL2    -0.180000       12.0110           0
      4034 MEMB     37       SAPE     H10X     HAL2     0.900000E-01   1.00800           0
      4035 MEMB     37       SAPE     H10Y     HAL2     0.900000E-01   1.00800           0
      4036 MEMB     37       SAPE     C311     CTL2    -0.180000       12.0110           0
      4037 MEMB     37       SAPE     H11X     HAL2     0.900000E-01   1.00800           0
      4038 MEMB     37       SAPE     H11Y     HAL2     0.900000E-01   1.00800           0
      4039 MEMB     37       SAPE     C312     CTL2    -0.180000       12.0110           0
      4040 MEMB     37       SAPE     H12X     HAL2     0.900000E-01   1.00800           0
      4041 MEMB     37       SAPE     H12Y     HAL2     0.900000E-01   1.00800           0
      4042 MEMB     37       SAPE     C313     CTL2    -0.180000       12.0110           0
      4043 MEMB     37       SAPE     H13X     HAL2     0.900000E-01   1.00800           0
      4044 MEMB     37       SAPE     H13Y     HAL2     0.900000E-01   1.00800           0
      4045 MEMB     37       SAPE     C314     CTL2    -0.180000       12.0110           0
      4046 MEMB     37       SAPE     H14X     HAL2     0.900000E-01   1.00800           0
      4047 MEMB     37       SAPE     H14Y     HAL2     0.900000E-01   1.00800           0
      4048 MEMB     37       SAPE     C315     CTL2    -0.180000       12.0110           0
      4049 MEMB     37       SAPE     H15X     HAL2     0.900000E-01   1.00800           0
      4050 MEMB     37       SAPE     H15Y     HAL2     0.900000E-01   1.00800           0
      4051 MEMB     37       SAPE     C316     CTL2    -0.180000       12.0110           0
      4052 MEMB     37       SAPE     H16X     HAL2     0.900000E-01   1.00800           0
      4053 MEMB     37       SAPE     H16Y     HAL2     0.900000E-01   1.00800           0
      4054 MEMB     37       SAPE     C317     CTL2    -0.180000       12.0110           0
      4055 MEMB     37       SAPE     H17X     HAL2     0.900000E-01   1.00800           0
      4056 MEMB     37       SAPE     H17Y     HAL2     0.900000E-01   1.00800           0
      4057 MEMB     37       SAPE     C318     CTL3    -0.270000       12.0110           0
      4058 MEMB     37       SAPE     H18X     HAL3     0.900000E-01   1.00800           0
      4059 MEMB     37       SAPE     H18Y     HAL3     0.900000E-01   1.00800           0
      4060 MEMB     37       SAPE     H18Z     HAL3     0.900000E-01   1.00800           0
      4061 MEMB     38       CHL1     C3       CRL1     0.140000       12.0110           0
      4062 MEMB     38       CHL1     H3       HGA1     0.900000E-01   1.00800           0
      4063 MEMB     38       CHL1     O3       OHL     -0.660000       15.9994           0
      4064 MEMB     38       CHL1     H3'      HOL      0.430000       1.00800           0
      4065 MEMB     38       CHL1     C4       CRL2    -0.180000       12.0110           0
      4066 MEMB     38       CHL1     H4A      HGA2     0.900000E-01   1.00800           0
      4067 MEMB     38       CHL1     H4B      HGA2     0.900000E-01   1.00800           0
      4068 MEMB     38       CHL1     C5       CEL1      0.00000       12.0110           0
      4069 MEMB     38       CHL1     C6       CEL1    -0.150000       12.0110           0
      4070 MEMB     38       CHL1     H6       HEL1     0.150000       1.00800           0
      4071 MEMB     38       CHL1     C7       CRL2    -0.180000       12.0110           0
      4072 MEMB     38       CHL1     H7A      HGA2     0.900000E-01   1.00800           0
      4073 MEMB     38       CHL1     H7B      HGA2     0.900000E-01   1.00800           0
      4074 MEMB     38       CHL1     C8       CRL1    -0.900000E-01   12.0110           0
      4075 MEMB     38       CHL1     H8       HGA1     0.900000E-01   1.00800           0
      4076 MEMB     38       CHL1     C14      CRL1    -0.900000E-01   12.0110           0
      4077 MEMB     38       CHL1     H14      HGA1     0.900000E-01   1.00800           0
      4078 MEMB     38       CHL1     C15      CRL2    -0.180000       12.0110           0
      4079 MEMB     38       CHL1     H15A     HGA2     0.900000E-01   1.00800           0
      4080 MEMB     38       CHL1     H15B     HGA2     0.900000E-01   1.00800           0
      4081 MEMB     38       CHL1     C16      CRL2    -0.180000       12.0110           0
      4082 MEMB     38       CHL1     H16A     HGA2     0.900000E-01   1.00800           0
      4083 MEMB     38       CHL1     H16B     HGA2     0.900000E-01   1.00800           0
      4084 MEMB     38       CHL1     C17      CRL1    -0.900000E-01   12.0110           0
      4085 MEMB     38       CHL1     H17      HGA1     0.900000E-01   1.00800           0
      4086 MEMB     38       CHL1     C13      CRL1      0.00000       12.0110           0
      4087 MEMB     38       CHL1     C18      CTL3    -0.270000       12.0110           0
      4088 MEMB     38       CHL1     H18A     HAL3     0.900000E-01   1.00800           0
      4089 MEMB     38       CHL1     H18B     HAL3     0.900000E-01   1.00800           0
      4090 MEMB     38       CHL1     H18C     HAL3     0.900000E-01   1.00800           0
      4091 MEMB     38       CHL1     C12      CRL2    -0.180000       12.0110           0
      4092 MEMB     38       CHL1     H12A     HGA2     0.900000E-01   1.00800           0
      4093 MEMB     38       CHL1     H12B     HGA2     0.900000E-01   1.00800           0
      4094 MEMB     38       CHL1     C11      CRL2    -0.180000       12.0110           0
      4095 MEMB     38       CHL1     H11A     HGA2     0.900000E-01   1.00800           0
      4096 MEMB     38       CHL1     H11B     HGA2     0.900000E-01   1.00800           0
      4097 MEMB     38       CHL1     C9       CRL1    -0.900000E-01   12.0110           0
      4098 MEMB     38       CHL1     H9       HGA1     0.900000E-01   1.00800           0
      4099 MEMB     38       CHL1     C10      CRL1      0.00000       12.0110           0
      4100 MEMB     38       CHL1     C19      CTL3    -0.270000       12.0110           0
      4101 MEMB     38       CHL1     H19A     HAL3     0.900000E-01   1.00800           0
      4102 MEMB     38       CHL1     H19B     HAL3     0.900000E-01   1.00800           0
      4103 MEMB     38       CHL1     H19C     HAL3     0.900000E-01   1.00800           0
      4104 MEMB     38       CHL1     C1       CRL2    -0.180000       12.0110           0
      4105 MEMB     38       CHL1     H1A      HGA2     0.900000E-01   1.00800           0
      4106 MEMB     38       CHL1     H1B      HGA2     0.900000E-01   1.00800           0
      4107 MEMB     38       CHL1     C2       CRL2    -0.180000       12.0110           0
      4108 MEMB     38       CHL1     H2A      HGA2     0.900000E-01   1.00800           0
      4109 MEMB     38       CHL1     H2B      HGA2     0.900000E-01   1.00800           0
      4110 MEMB     38       CHL1     C20      CTL1    -0.900000E-01   12.0110           0
      4111 MEMB     38       CHL1     H20      HAL1     0.900000E-01   1.00800           0
      4112 MEMB     38       CHL1     C21      CTL3    -0.270000       12.0110           0
      4113 MEMB     38       CHL1     H21A     HAL3     0.900000E-01   1.00800           0
      4114 MEMB     38       CHL1     H21B     HAL3     0.900000E-01   1.00800           0
      4115 MEMB     38       CHL1     H21C     HAL3     0.900000E-01   1.00800           0
      4116 MEMB     38       CHL1     C22      CTL2    -0.180000       12.0110           0
      4117 MEMB     38       CHL1     H22A     HAL2     0.900000E-01   1.00800           0
      4118 MEMB     38       CHL1     H22B     HAL2     0.900000E-01   1.00800           0
      4119 MEMB     38       CHL1     C23      CTL2    -0.180000       12.0110           0
      4120 MEMB     38       CHL1     H23A     HAL2     0.900000E-01   1.00800           0
      4121 MEMB     38       CHL1     H23B     HAL2     0.900000E-01   1.00800           0
      4122 MEMB     38       CHL1     C24      CTL2    -0.180000       12.0110           0
      4123 MEMB     38       CHL1     H24A     HAL2     0.900000E-01   1.00800           0
      4124 MEMB     38       CHL1     H24B     HAL2     0.900000E-01   1.00800           0
      4125 MEMB     38       CHL1     C25      CTL1    -0.900000E-01   12.0110           0
      4126 MEMB     38       CHL1     H25      HAL1     0.900000E-01   1.00800           0
      4127 MEMB     38       CHL1     C26      CTL3    -0.270000       12.0110           0
      4128 MEMB     38       CHL1     H26A     HAL3     0.900000E-01   1.00800           0
      4129 MEMB     38       CHL1     H26B     HAL3     0.900000E-01   1.00800           0
      4130 MEMB     38       CHL1     H26C     HAL3     0.900000E-01   1.00800           0
      4131 MEMB     38       CHL1     C27      CTL3    -0.270000       12.0110           0
      4132 MEMB     38       CHL1     H27A     HAL3     0.900000E-01   1.00800           0
      4133 MEMB     38       CHL1     H27B     HAL3     0.900000E-01   1.00800           0
      4134 MEMB     38       CHL1     H27C     HAL3     0.900000E-01   1.00800           0
      4135 MEMB     39       SAPS     N        NH3L    -0.300000       14.0070           0
      4136 MEMB     39       SAPS     HN1      HCL      0.330000       1.00800           0
      4137 MEMB     39       SAPS     HN2      HCL      0.330000       1.00800           0
      4138 MEMB     39       SAPS     HN3      HCL      0.330000       1.00800           0
      4139 MEMB     39       SAPS     C12      CTL1     0.210000       12.0110           0
      4140 MEMB     39       SAPS     H12A     HBL      0.100000       1.00800           0
      4141 MEMB     39       SAPS     C13      CCL      0.340000       12.0110           0
      4142 MEMB     39       SAPS     O13A     OCL     -0.670000       15.9994           0
      4143 MEMB     39       SAPS     O13B     OCL     -0.670000       15.9994           0
      4144 MEMB     39       SAPS     C11      CTL2    -0.800000E-01   12.0110           0
      4145 MEMB     39       SAPS     H11A     HAL2     0.900000E-01   1.00800           0
      4146 MEMB     39       SAPS     H11B     HAL2     0.900000E-01   1.00800           0
      4147 MEMB     39       SAPS     P        PL        1.50000       30.9740           0
      4148 MEMB     39       SAPS     O13      O2L     -0.780000       15.9994           0
      4149 MEMB     39       SAPS     O14      O2L     -0.780000       15.9994           0
      4150 MEMB     39       SAPS     O12      OSLP    -0.570000       15.9994           0
      4151 MEMB     39       SAPS     O11      OSLP    -0.570000       15.9994           0
      4152 MEMB     39       SAPS     C1       CTL2    -0.800000E-01   12.0110           0
      4153 MEMB     39       SAPS     HA       HAL2     0.900000E-01   1.00800           0
      4154 MEMB     39       SAPS     HB       HAL2     0.900000E-01   1.00800           0
      4155 MEMB     39       SAPS     C2       CTL1     0.170000       12.0110           0
      4156 MEMB     39       SAPS     HS       HAL1     0.900000E-01   1.00800           0
      4157 MEMB     39       SAPS     O21      OSL     -0.490000       15.9994           0
      4158 MEMB     39       SAPS     C21      CL       0.900000       12.0110           0
      4159 MEMB     39       SAPS     O22      OBL     -0.630000       15.9994           0
      4160 MEMB     39       SAPS     C22      CTL2    -0.220000       12.0110           0
      4161 MEMB     39       SAPS     H2R      HAL2     0.900000E-01   1.00800           0
      4162 MEMB     39       SAPS     H2S      HAL2     0.900000E-01   1.00800           0
      4163 MEMB     39       SAPS     C3       CTL2     0.800000E-01   12.0110           0
      4164 MEMB     39       SAPS     HX       HAL2     0.900000E-01   1.00800           0
      4165 MEMB     39       SAPS     HY       HAL2     0.900000E-01   1.00800           0
      4166 MEMB     39       SAPS     O31      OSL     -0.490000       15.9994           0
      4167 MEMB     39       SAPS     C31      CL       0.900000       12.0110           0
      4168 MEMB     39       SAPS     O32      OBL     -0.630000       15.9994           0
      4169 MEMB     39       SAPS     C32      CTL2    -0.220000       12.0110           0
      4170 MEMB     39       SAPS     H2X      HAL2     0.900000E-01   1.00800           0
      4171 MEMB     39       SAPS     H2Y      HAL2     0.900000E-01   1.00800           0
      4172 MEMB     39       SAPS     C23      CTL2    -0.180000       12.0110           0
      4173 MEMB     39       SAPS     H3R      HAL2     0.900000E-01   1.00800           0
      4174 MEMB     39       SAPS     H3S      HAL2     0.900000E-01   1.00800           0
      4175 MEMB     39       SAPS     C24      CTL2    -0.180000       12.0110           0
      4176 MEMB     39       SAPS     H4R      HAL2     0.900000E-01   1.00800           0
      4177 MEMB     39       SAPS     H4S      HAL2     0.900000E-01   1.00800           0
      4178 MEMB     39       SAPS     C25      CEL1    -0.150000       12.0110           0
      4179 MEMB     39       SAPS     H5R      HEL1     0.150000       1.00800           0
      4180 MEMB     39       SAPS     C26      CEL1    -0.150000       12.0110           0
      4181 MEMB     39       SAPS     H6R      HEL1     0.150000       1.00800           0
      4182 MEMB     39       SAPS     C27      CTL2    -0.180000       12.0110           0
      4183 MEMB     39       SAPS     H7R      HAL2     0.900000E-01   1.00800           0
      4184 MEMB     39       SAPS     H7S      HAL2     0.900000E-01   1.00800           0
      4185 MEMB     39       SAPS     C28      CEL1    -0.150000       12.0110           0
      4186 MEMB     39       SAPS     H8R      HEL1     0.150000       1.00800           0
      4187 MEMB     39       SAPS     C29      CEL1    -0.150000       12.0110           0
      4188 MEMB     39       SAPS     H9R      HEL1     0.150000       1.00800           0
      4189 MEMB     39       SAPS     C210     CTL2    -0.180000       12.0110           0
      4190 MEMB     39       SAPS     H10R     HAL2     0.900000E-01   1.00800           0
      4191 MEMB     39       SAPS     H10S     HAL2     0.900000E-01   1.00800           0
      4192 MEMB     39       SAPS     C211     CEL1    -0.150000       12.0110           0
      4193 MEMB     39       SAPS     H11R     HEL1     0.150000       1.00800           0
      4194 MEMB     39       SAPS     C212     CEL1    -0.150000       12.0110           0
      4195 MEMB     39       SAPS     H12R     HEL1     0.150000       1.00800           0
      4196 MEMB     39       SAPS     C213     CTL2    -0.180000       12.0110           0
      4197 MEMB     39       SAPS     H13R     HAL2     0.900000E-01   1.00800           0
      4198 MEMB     39       SAPS     H13S     HAL2     0.900000E-01   1.00800           0
      4199 MEMB     39       SAPS     C214     CEL1    -0.150000       12.0110           0
      4200 MEMB     39       SAPS     H14R     HEL1     0.150000       1.00800           0
      4201 MEMB     39       SAPS     C215     CEL1    -0.150000       12.0110           0
      4202 MEMB     39       SAPS     H15R     HEL1     0.150000       1.00800           0
      4203 MEMB     39       SAPS     C216     CTL2    -0.180000       12.0110           0
      4204 MEMB     39       SAPS     H16R     HAL2     0.900000E-01   1.00800           0
      4205 MEMB     39       SAPS     H16S     HAL2     0.900000E-01   1.00800           0
      4206 MEMB     39       SAPS     C217     CTL2    -0.180000       12.0110           0
      4207 MEMB     39       SAPS     H17R     HAL2     0.900000E-01   1.00800           0
      4208 MEMB     39       SAPS     H17S     HAL2     0.900000E-01   1.00800           0
      4209 MEMB     39       SAPS     C218     CTL2    -0.180000       12.0110           0
      4210 MEMB     39       SAPS     H18R     HAL2     0.900000E-01   1.00800           0
      4211 MEMB     39       SAPS     H18S     HAL2     0.900000E-01   1.00800           0
      4212 MEMB     39       SAPS     C219     CTL2    -0.180000       12.0110           0
      4213 MEMB     39       SAPS     H19R     HAL2     0.900000E-01   1.00800           0
      4214 MEMB     39       SAPS     H19S     HAL2     0.900000E-01   1.00800           0
      4215 MEMB     39       SAPS     C220     CTL3    -0.270000       12.0110           0
      4216 MEMB     39       SAPS     H20R     HAL3     0.900000E-01   1.00800           0
      4217 MEMB     39       SAPS     H20S     HAL3     0.900000E-01   1.00800           0
      4218 MEMB     39       SAPS     H20T     HAL3     0.900000E-01   1.00800           0
      4219 MEMB     39       SAPS     C33      CTL2    -0.180000       12.0110           0
      4220 MEMB     39       SAPS     H3X      HAL2     0.900000E-01   1.00800           0
      4221 MEMB     39       SAPS     H3Y      HAL2     0.900000E-01   1.00800           0
      4222 MEMB     39       SAPS     C34      CTL2    -0.180000       12.0110           0
      4223 MEMB     39       SAPS     H4X      HAL2     0.900000E-01   1.00800           0
      4224 MEMB     39       SAPS     H4Y      HAL2     0.900000E-01   1.00800           0
      4225 MEMB     39       SAPS     C35      CTL2    -0.180000       12.0110           0
      4226 MEMB     39       SAPS     H5X      HAL2     0.900000E-01   1.00800           0
      4227 MEMB     39       SAPS     H5Y      HAL2     0.900000E-01   1.00800           0
      4228 MEMB     39       SAPS     C36      CTL2    -0.180000       12.0110           0
      4229 MEMB     39       SAPS     H6X      HAL2     0.900000E-01   1.00800           0
      4230 MEMB     39       SAPS     H6Y      HAL2     0.900000E-01   1.00800           0
      4231 MEMB     39       SAPS     C37      CTL2    -0.180000       12.0110           0
      4232 MEMB     39       SAPS     H7X      HAL2     0.900000E-01   1.00800           0
      4233 MEMB     39       SAPS     H7Y      HAL2     0.900000E-01   1.00800           0
      4234 MEMB     39       SAPS     C38      CTL2    -0.180000       12.0110           0
      4235 MEMB     39       SAPS     H8X      HAL2     0.900000E-01   1.00800           0
      4236 MEMB     39       SAPS     H8Y      HAL2     0.900000E-01   1.00800           0
      4237 MEMB     39       SAPS     C39      CTL2    -0.180000       12.0110           0
      4238 MEMB     39       SAPS     H9X      HAL2     0.900000E-01   1.00800           0
      4239 MEMB     39       SAPS     H9Y      HAL2     0.900000E-01   1.00800           0
      4240 MEMB     39       SAPS     C310     CTL2    -0.180000       12.0110           0
      4241 MEMB     39       SAPS     H10X     HAL2     0.900000E-01   1.00800           0
      4242 MEMB     39       SAPS     H10Y     HAL2     0.900000E-01   1.00800           0
      4243 MEMB     39       SAPS     C311     CTL2    -0.180000       12.0110           0
      4244 MEMB     39       SAPS     H11X     HAL2     0.900000E-01   1.00800           0
      4245 MEMB     39       SAPS     H11Y     HAL2     0.900000E-01   1.00800           0
      4246 MEMB     39       SAPS     C312     CTL2    -0.180000       12.0110           0
      4247 MEMB     39       SAPS     H12X     HAL2     0.900000E-01   1.00800           0
      4248 MEMB     39       SAPS     H12Y     HAL2     0.900000E-01   1.00800           0
      4249 MEMB     39       SAPS     C313     CTL2    -0.180000       12.0110           0
      4250 MEMB     39       SAPS     H13X     HAL2     0.900000E-01   1.00800           0
      4251 MEMB     39       SAPS     H13Y     HAL2     0.900000E-01   1.00800           0
      4252 MEMB     39       SAPS     C314     CTL2    -0.180000       12.0110           0
      4253 MEMB     39       SAPS     H14X     HAL2     0.900000E-01   1.00800           0
      4254 MEMB     39       SAPS     H14Y     HAL2     0.900000E-01   1.00800           0
      4255 MEMB     39       SAPS     C315     CTL2    -0.180000       12.0110           0
      4256 MEMB     39       SAPS     H15X     HAL2     0.900000E-01   1.00800           0
      4257 MEMB     39       SAPS     H15Y     HAL2     0.900000E-01   1.00800           0
      4258 MEMB     39       SAPS     C316     CTL2    -0.180000       12.0110           0
      4259 MEMB     39       SAPS     H16X     HAL2     0.900000E-01   1.00800           0
      4260 MEMB     39       SAPS     H16Y     HAL2     0.900000E-01   1.00800           0
      4261 MEMB     39       SAPS     C317     CTL2    -0.180000       12.0110           0
      4262 MEMB     39       SAPS     H17X     HAL2     0.900000E-01   1.00800           0
      4263 MEMB     39       SAPS     H17Y     HAL2     0.900000E-01   1.00800           0
      4264 MEMB     39       SAPS     C318     CTL3    -0.270000       12.0110           0
      4265 MEMB     39       SAPS     H18X     HAL3     0.900000E-01   1.00800           0
      4266 MEMB     39       SAPS     H18Y     HAL3     0.900000E-01   1.00800           0
      4267 MEMB     39       SAPS     H18Z     HAL3     0.900000E-01   1.00800           0
      4268 MEMB     40       SLPC     N        NTL     -0.600000       14.0070           0
      4269 MEMB     40       SLPC     C13      CTL5    -0.350000       12.0110           0
      4270 MEMB     40       SLPC     H13A     HL       0.250000       1.00800           0
      4271 MEMB     40       SLPC     H13B     HL       0.250000       1.00800           0
      4272 MEMB     40       SLPC     H13C     HL       0.250000       1.00800           0
      4273 MEMB     40       SLPC     C14      CTL5    -0.350000       12.0110           0
      4274 MEMB     40       SLPC     H14A     HL       0.250000       1.00800           0
      4275 MEMB     40       SLPC     H14B     HL       0.250000       1.00800           0
      4276 MEMB     40       SLPC     H14C     HL       0.250000       1.00800           0
      4277 MEMB     40       SLPC     C15      CTL5    -0.350000       12.0110           0
      4278 MEMB     40       SLPC     H15A     HL       0.250000       1.00800           0
      4279 MEMB     40       SLPC     H15B     HL       0.250000       1.00800           0
      4280 MEMB     40       SLPC     H15C     HL       0.250000       1.00800           0
      4281 MEMB     40       SLPC     C12      CTL2    -0.100000       12.0110           0
      4282 MEMB     40       SLPC     H12A     HL       0.250000       1.00800           0
      4283 MEMB     40       SLPC     H12B     HL       0.250000       1.00800           0
      4284 MEMB     40       SLPC     C11      CTL2    -0.800000E-01   12.0110           0
      4285 MEMB     40       SLPC     H11A     HAL2     0.900000E-01   1.00800           0
      4286 MEMB     40       SLPC     H11B     HAL2     0.900000E-01   1.00800           0
      4287 MEMB     40       SLPC     P        PL        1.50000       30.9740           0
      4288 MEMB     40       SLPC     O13      O2L     -0.780000       15.9994           0
      4289 MEMB     40       SLPC     O14      O2L     -0.780000       15.9994           0
      4290 MEMB     40       SLPC     O12      OSLP    -0.570000       15.9994           0
      4291 MEMB     40       SLPC     O11      OSLP    -0.570000       15.9994           0
      4292 MEMB     40       SLPC     C1       CTL2    -0.800000E-01   12.0110           0
      4293 MEMB     40       SLPC     HA       HAL2     0.900000E-01   1.00800           0
      4294 MEMB     40       SLPC     HB       HAL2     0.900000E-01   1.00800           0
      4295 MEMB     40       SLPC     C2       CTL1     0.170000       12.0110           0
      4296 MEMB     40       SLPC     HS       HAL1     0.900000E-01   1.00800           0
      4297 MEMB     40       SLPC     O21      OSL     -0.490000       15.9994           0
      4298 MEMB     40       SLPC     C21      CL       0.900000       12.0110           0
      4299 MEMB     40       SLPC     O22      OBL     -0.630000       15.9994           0
      4300 MEMB     40       SLPC     C22      CTL2    -0.220000       12.0110           0
      4301 MEMB     40       SLPC     H2R      HAL2     0.900000E-01   1.00800           0
      4302 MEMB     40       SLPC     H2S      HAL2     0.900000E-01   1.00800           0
      4303 MEMB     40       SLPC     C3       CTL2     0.800000E-01   12.0110           0
      4304 MEMB     40       SLPC     HX       HAL2     0.900000E-01   1.00800           0
      4305 MEMB     40       SLPC     HY       HAL2     0.900000E-01   1.00800           0
      4306 MEMB     40       SLPC     O31      OSL     -0.490000       15.9994           0
      4307 MEMB     40       SLPC     C31      CL       0.900000       12.0110           0
      4308 MEMB     40       SLPC     O32      OBL     -0.630000       15.9994           0
      4309 MEMB     40       SLPC     C32      CTL2    -0.220000       12.0110           0
      4310 MEMB     40       SLPC     H2X      HAL2     0.900000E-01   1.00800           0
      4311 MEMB     40       SLPC     H2Y      HAL2     0.900000E-01   1.00800           0
      4312 MEMB     40       SLPC     C23      CTL2    -0.180000       12.0110           0
      4313 MEMB     40       SLPC     H3R      HAL2     0.900000E-01   1.00800           0
      4314 MEMB     40       SLPC     H3S      HAL2     0.900000E-01   1.00800           0
      4315 MEMB     40       SLPC     C24      CTL2    -0.180000       12.0110           0
      4316 MEMB     40       SLPC     H4R      HAL2     0.900000E-01   1.00800           0
      4317 MEMB     40       SLPC     H4S      HAL2     0.900000E-01   1.00800           0
      4318 MEMB     40       SLPC     C25      CTL2    -0.180000       12.0110           0
      4319 MEMB     40       SLPC     H5R      HAL2     0.900000E-01   1.00800           0
      4320 MEMB     40       SLPC     H5S      HAL2     0.900000E-01   1.00800           0
      4321 MEMB     40       SLPC     C26      CTL2    -0.180000       12.0110           0
      4322 MEMB     40       SLPC     H6R      HAL2     0.900000E-01   1.00800           0
      4323 MEMB     40       SLPC     H6S      HAL2     0.900000E-01   1.00800           0
      4324 MEMB     40       SLPC     C27      CTL2    -0.180000       12.0110           0
      4325 MEMB     40       SLPC     H7R      HAL2     0.900000E-01   1.00800           0
      4326 MEMB     40       SLPC     H7S      HAL2     0.900000E-01   1.00800           0
      4327 MEMB     40       SLPC     C28      CTL2    -0.180000       12.0110           0
      4328 MEMB     40       SLPC     H8R      HAL2     0.900000E-01   1.00800           0
      4329 MEMB     40       SLPC     H8S      HAL2     0.900000E-01   1.00800           0
      4330 MEMB     40       SLPC     C29      CEL1    -0.150000       12.0110           0
      4331 MEMB     40       SLPC     H9R      HEL1     0.150000       1.00800           0
      4332 MEMB     40       SLPC     C210     CEL1    -0.150000       12.0110           0
      4333 MEMB     40       SLPC     H10R     HEL1     0.150000       1.00800           0
      4334 MEMB     40       SLPC     C211     CTL2    -0.180000       12.0110           0
      4335 MEMB     40       SLPC     H11R     HAL2     0.900000E-01   1.00800           0
      4336 MEMB     40       SLPC     H11S     HAL2     0.900000E-01   1.00800           0
      4337 MEMB     40       SLPC     C212     CEL1    -0.150000       12.0110           0
      4338 MEMB     40       SLPC     H12R     HEL1     0.150000       1.00800           0
      4339 MEMB     40       SLPC     C213     CEL1    -0.150000       12.0110           0
      4340 MEMB     40       SLPC     H13R     HEL1     0.150000       1.00800           0
      4341 MEMB     40       SLPC     C214     CTL2    -0.180000       12.0110           0
      4342 MEMB     40       SLPC     H14R     HAL2     0.900000E-01   1.00800           0
      4343 MEMB     40       SLPC     H14S     HAL2     0.900000E-01   1.00800           0
      4344 MEMB     40       SLPC     C215     CTL2    -0.180000       12.0110           0
      4345 MEMB     40       SLPC     H15R     HAL2     0.900000E-01   1.00800           0
      4346 MEMB     40       SLPC     H15S     HAL2     0.900000E-01   1.00800           0
      4347 MEMB     40       SLPC     C216     CTL2    -0.180000       12.0110           0
      4348 MEMB     40       SLPC     H16R     HAL2     0.900000E-01   1.00800           0
      4349 MEMB     40       SLPC     H16S     HAL2     0.900000E-01   1.00800           0
      4350 MEMB     40       SLPC     C217     CTL2    -0.180000       12.0110           0
      4351 MEMB     40       SLPC     H17R     HAL2     0.900000E-01   1.00800           0
      4352 MEMB     40       SLPC     H17S     HAL2     0.900000E-01   1.00800           0
      4353 MEMB     40       SLPC     C218     CTL3    -0.270000       12.0110           0
      4354 MEMB     40       SLPC     H18R     HAL3     0.900000E-01   1.00800           0
      4355 MEMB     40       SLPC     H18S     HAL3     0.900000E-01   1.00800           0
      4356 MEMB     40       SLPC     H18T     HAL3     0.900000E-01   1.00800           0
      4357 MEMB     40       SLPC     C33      CTL2    -0.180000       12.0110           0
      4358 MEMB     40       SLPC     H3X      HAL2     0.900000E-01   1.00800           0
      4359 MEMB     40       SLPC     H3Y      HAL2     0.900000E-01   1.00800           0
      4360 MEMB     40       SLPC     C34      CTL2    -0.180000       12.0110           0
      4361 MEMB     40       SLPC     H4X      HAL2     0.900000E-01   1.00800           0
      4362 MEMB     40       SLPC     H4Y      HAL2     0.900000E-01   1.00800           0
      4363 MEMB     40       SLPC     C35      CTL2    -0.180000       12.0110           0
      4364 MEMB     40       SLPC     H5X      HAL2     0.900000E-01   1.00800           0
      4365 MEMB     40       SLPC     H5Y      HAL2     0.900000E-01   1.00800           0
      4366 MEMB     40       SLPC     C36      CTL2    -0.180000       12.0110           0
      4367 MEMB     40       SLPC     H6X      HAL2     0.900000E-01   1.00800           0
      4368 MEMB     40       SLPC     H6Y      HAL2     0.900000E-01   1.00800           0
      4369 MEMB     40       SLPC     C37      CTL2    -0.180000       12.0110           0
      4370 MEMB     40       SLPC     H7X      HAL2     0.900000E-01   1.00800           0
      4371 MEMB     40       SLPC     H7Y      HAL2     0.900000E-01   1.00800           0
      4372 MEMB     40       SLPC     C38      CTL2    -0.180000       12.0110           0
      4373 MEMB     40       SLPC     H8X      HAL2     0.900000E-01   1.00800           0
      4374 MEMB     40       SLPC     H8Y      HAL2     0.900000E-01   1.00800           0
      4375 MEMB     40       SLPC     C39      CTL2    -0.180000       12.0110           0
      4376 MEMB     40       SLPC     H9X      HAL2     0.900000E-01   1.00800           0
      4377 MEMB     40       SLPC     H9Y      HAL2     0.900000E-01   1.00800           0
      4378 MEMB     40       SLPC     C310     CTL2    -0.180000       12.0110           0
      4379 MEMB     40       SLPC     H10X     HAL2     0.900000E-01   1.00800           0
      4380 MEMB     40       SLPC     H10Y     HAL2     0.900000E-01   1.00800           0
      4381 MEMB     40       SLPC     C311     CTL2    -0.180000       12.0110           0
      4382 MEMB     40       SLPC     H11X     HAL2     0.900000E-01   1.00800           0
      4383 MEMB     40       SLPC     H11Y     HAL2     0.900000E-01   1.00800           0
      4384 MEMB     40       SLPC     C312     CTL2    -0.180000       12.0110           0
      4385 MEMB     40       SLPC     H12X     HAL2     0.900000E-01   1.00800           0
      4386 MEMB     40       SLPC     H12Y     HAL2     0.900000E-01   1.00800           0
      4387 MEMB     40       SLPC     C313     CTL2    -0.180000       12.0110           0
      4388 MEMB     40       SLPC     H13X     HAL2     0.900000E-01   1.00800           0
      4389 MEMB     40       SLPC     H13Y     HAL2     0.900000E-01   1.00800           0
      4390 MEMB     40       SLPC     C314     CTL2    -0.180000       12.0110           0
      4391 MEMB     40       SLPC     H14X     HAL2     0.900000E-01   1.00800           0
      4392 MEMB     40       SLPC     H14Y     HAL2     0.900000E-01   1.00800           0
      4393 MEMB     40       SLPC     C315     CTL2    -0.180000       12.0110           0
      4394 MEMB     40       SLPC     H15X     HAL2     0.900000E-01   1.00800           0
      4395 MEMB     40       SLPC     H15Y     HAL2     0.900000E-01   1.00800           0
      4396 MEMB     40       SLPC     C316     CTL2    -0.180000       12.0110           0
      4397 MEMB     40       SLPC     H16X     HAL2     0.900000E-01   1.00800           0
      4398 MEMB     40       SLPC     H16Y     HAL2     0.900000E-01   1.00800           0
      4399 MEMB     40       SLPC     C317     CTL2    -0.180000       12.0110           0
      4400 MEMB     40       SLPC     H17X     HAL2     0.900000E-01   1.00800           0
      4401 MEMB     40       SLPC     H17Y     HAL2     0.900000E-01   1.00800           0
      4402 MEMB     40       SLPC     C318     CTL3    -0.270000       12.0110           0
      4403 MEMB     40       SLPC     H18X     HAL3     0.900000E-01   1.00800           0
      4404 MEMB     40       SLPC     H18Y     HAL3     0.900000E-01   1.00800           0
      4405 MEMB     40       SLPC     H18Z     HAL3     0.900000E-01   1.00800           0
      4406 MEMB     41       SAPC     N        NTL     -0.600000       14.0070           0
      4407 MEMB     41       SAPC     C12      CTL2    -0.100000       12.0110           0
      4408 MEMB     41       SAPC     H12A     HL       0.250000       1.00800           0
      4409 MEMB     41       SAPC     H12B     HL       0.250000       1.00800           0
      4410 MEMB     41       SAPC     C13      CTL5    -0.350000       12.0110           0
      4411 MEMB     41       SAPC     H13A     HL       0.250000       1.00800           0
      4412 MEMB     41       SAPC     H13B     HL       0.250000       1.00800           0
      4413 MEMB     41       SAPC     H13C     HL       0.250000       1.00800           0
      4414 MEMB     41       SAPC     C14      CTL5    -0.350000       12.0110           0
      4415 MEMB     41       SAPC     H14A     HL       0.250000       1.00800           0
      4416 MEMB     41       SAPC     H14B     HL       0.250000       1.00800           0
      4417 MEMB     41       SAPC     H14C     HL       0.250000       1.00800           0
      4418 MEMB     41       SAPC     C15      CTL5    -0.350000       12.0110           0
      4419 MEMB     41       SAPC     H15A     HL       0.250000       1.00800           0
      4420 MEMB     41       SAPC     H15B     HL       0.250000       1.00800           0
      4421 MEMB     41       SAPC     H15C     HL       0.250000       1.00800           0
      4422 MEMB     41       SAPC     C11      CTL2    -0.800000E-01   12.0110           0
      4423 MEMB     41       SAPC     H11A     HAL2     0.900000E-01   1.00800           0
      4424 MEMB     41       SAPC     H11B     HAL2     0.900000E-01   1.00800           0
      4425 MEMB     41       SAPC     P        PL        1.50000       30.9740           0
      4426 MEMB     41       SAPC     O13      O2L     -0.780000       15.9994           0
      4427 MEMB     41       SAPC     O14      O2L     -0.780000       15.9994           0
      4428 MEMB     41       SAPC     O12      OSLP    -0.570000       15.9994           0
      4429 MEMB     41       SAPC     O11      OSLP    -0.570000       15.9994           0
      4430 MEMB     41       SAPC     C1       CTL2    -0.800000E-01   12.0110           0
      4431 MEMB     41       SAPC     HA       HAL2     0.900000E-01   1.00800           0
      4432 MEMB     41       SAPC     HB       HAL2     0.900000E-01   1.00800           0
      4433 MEMB     41       SAPC     C2       CTL1     0.170000       12.0110           0
      4434 MEMB     41       SAPC     HS       HAL1     0.900000E-01   1.00800           0
      4435 MEMB     41       SAPC     O21      OSL     -0.490000       15.9994           0
      4436 MEMB     41       SAPC     C21      CL       0.900000       12.0110           0
      4437 MEMB     41       SAPC     O22      OBL     -0.630000       15.9994           0
      4438 MEMB     41       SAPC     C22      CTL2    -0.220000       12.0110           0
      4439 MEMB     41       SAPC     H2R      HAL2     0.900000E-01   1.00800           0
      4440 MEMB     41       SAPC     H2S      HAL2     0.900000E-01   1.00800           0
      4441 MEMB     41       SAPC     C3       CTL2     0.800000E-01   12.0110           0
      4442 MEMB     41       SAPC     HX       HAL2     0.900000E-01   1.00800           0
      4443 MEMB     41       SAPC     HY       HAL2     0.900000E-01   1.00800           0
      4444 MEMB     41       SAPC     O31      OSL     -0.490000       15.9994           0
      4445 MEMB     41       SAPC     C31      CL       0.900000       12.0110           0
      4446 MEMB     41       SAPC     O32      OBL     -0.630000       15.9994           0
      4447 MEMB     41       SAPC     C32      CTL2    -0.220000       12.0110           0
      4448 MEMB     41       SAPC     H2X      HAL2     0.900000E-01   1.00800           0
      4449 MEMB     41       SAPC     H2Y      HAL2     0.900000E-01   1.00800           0
      4450 MEMB     41       SAPC     C23      CTL2    -0.180000       12.0110           0
      4451 MEMB     41       SAPC     H3R      HAL2     0.900000E-01   1.00800           0
      4452 MEMB     41       SAPC     H3S      HAL2     0.900000E-01   1.00800           0
      4453 MEMB     41       SAPC     C24      CTL2    -0.180000       12.0110           0
      4454 MEMB     41       SAPC     H4R      HAL2     0.900000E-01   1.00800           0
      4455 MEMB     41       SAPC     H4S      HAL2     0.900000E-01   1.00800           0
      4456 MEMB     41       SAPC     C25      CEL1    -0.150000       12.0110           0
      4457 MEMB     41       SAPC     H5R      HEL1     0.150000       1.00800           0
      4458 MEMB     41       SAPC     C26      CEL1    -0.150000       12.0110           0
      4459 MEMB     41       SAPC     H6R      HEL1     0.150000       1.00800           0
      4460 MEMB     41       SAPC     C27      CTL2    -0.180000       12.0110           0
      4461 MEMB     41       SAPC     H7R      HAL2     0.900000E-01   1.00800           0
      4462 MEMB     41       SAPC     H7S      HAL2     0.900000E-01   1.00800           0
      4463 MEMB     41       SAPC     C28      CEL1    -0.150000       12.0110           0
      4464 MEMB     41       SAPC     H8R      HEL1     0.150000       1.00800           0
      4465 MEMB     41       SAPC     C29      CEL1    -0.150000       12.0110           0
      4466 MEMB     41       SAPC     H9R      HEL1     0.150000       1.00800           0
      4467 MEMB     41       SAPC     C210     CTL2    -0.180000       12.0110           0
      4468 MEMB     41       SAPC     H10R     HAL2     0.900000E-01   1.00800           0
      4469 MEMB     41       SAPC     H10S     HAL2     0.900000E-01   1.00800           0
      4470 MEMB     41       SAPC     C211     CEL1    -0.150000       12.0110           0
      4471 MEMB     41       SAPC     H11R     HEL1     0.150000       1.00800           0
      4472 MEMB     41       SAPC     C212     CEL1    -0.150000       12.0110           0
      4473 MEMB     41       SAPC     H12R     HEL1     0.150000       1.00800           0
      4474 MEMB     41       SAPC     C213     CTL2    -0.180000       12.0110           0
      4475 MEMB     41       SAPC     H13R     HAL2     0.900000E-01   1.00800           0
      4476 MEMB     41       SAPC     H13S     HAL2     0.900000E-01   1.00800           0
      4477 MEMB     41       SAPC     C214     CEL1    -0.150000       12.0110           0
      4478 MEMB     41       SAPC     H14R     HEL1     0.150000       1.00800           0
      4479 MEMB     41       SAPC     C215     CEL1    -0.150000       12.0110           0
      4480 MEMB     41       SAPC     H15R     HEL1     0.150000       1.00800           0
      4481 MEMB     41       SAPC     C216     CTL2    -0.180000       12.0110           0
      4482 MEMB     41       SAPC     H16R     HAL2     0.900000E-01   1.00800           0
      4483 MEMB     41       SAPC     H16S     HAL2     0.900000E-01   1.00800           0
      4484 MEMB     41       SAPC     C217     CTL2    -0.180000       12.0110           0
      4485 MEMB     41       SAPC     H17R     HAL2     0.900000E-01   1.00800           0
      4486 MEMB     41       SAPC     H17S     HAL2     0.900000E-01   1.00800           0
      4487 MEMB     41       SAPC     C218     CTL2    -0.270000       12.0110           0
      4488 MEMB     41       SAPC     H18R     HAL2     0.900000E-01   1.00800           0
      4489 MEMB     41       SAPC     H18S     HAL2     0.900000E-01   1.00800           0
      4490 MEMB     41       SAPC     C219     CTL2    -0.180000       12.0110           0
      4491 MEMB     41       SAPC     H19R     HAL2     0.900000E-01   1.00800           0
      4492 MEMB     41       SAPC     H19S     HAL2     0.900000E-01   1.00800           0
      4493 MEMB     41       SAPC     C220     CTL3    -0.180000       12.0110           0
      4494 MEMB     41       SAPC     H20R     HAL3     0.900000E-01   1.00800           0
      4495 MEMB     41       SAPC     H20S     HAL3     0.900000E-01   1.00800           0
      4496 MEMB     41       SAPC     H20T     HAL3     0.900000E-01   1.00800           0
      4497 MEMB     41       SAPC     C33      CTL2    -0.180000       12.0110           0
      4498 MEMB     41       SAPC     H3X      HAL2     0.900000E-01   1.00800           0
      4499 MEMB     41       SAPC     H3Y      HAL2     0.900000E-01   1.00800           0
      4500 MEMB     41       SAPC     C34      CTL2    -0.180000       12.0110           0
      4501 MEMB     41       SAPC     H4X      HAL2     0.900000E-01   1.00800           0
      4502 MEMB     41       SAPC     H4Y      HAL2     0.900000E-01   1.00800           0
      4503 MEMB     41       SAPC     C35      CTL2    -0.180000       12.0110           0
      4504 MEMB     41       SAPC     H5X      HAL2     0.900000E-01   1.00800           0
      4505 MEMB     41       SAPC     H5Y      HAL2     0.900000E-01   1.00800           0
      4506 MEMB     41       SAPC     C36      CTL2    -0.180000       12.0110           0
      4507 MEMB     41       SAPC     H6X      HAL2     0.900000E-01   1.00800           0
      4508 MEMB     41       SAPC     H6Y      HAL2     0.900000E-01   1.00800           0
      4509 MEMB     41       SAPC     C37      CTL2    -0.180000       12.0110           0
      4510 MEMB     41       SAPC     H7X      HAL2     0.900000E-01   1.00800           0
      4511 MEMB     41       SAPC     H7Y      HAL2     0.900000E-01   1.00800           0
      4512 MEMB     41       SAPC     C38      CTL2    -0.180000       12.0110           0
      4513 MEMB     41       SAPC     H8X      HAL2     0.900000E-01   1.00800           0
      4514 MEMB     41       SAPC     H8Y      HAL2     0.900000E-01   1.00800           0
      4515 MEMB     41       SAPC     C39      CTL2    -0.180000       12.0110           0
      4516 MEMB     41       SAPC     H9X      HAL2     0.900000E-01   1.00800           0
      4517 MEMB     41       SAPC     H9Y      HAL2     0.900000E-01   1.00800           0
      4518 MEMB     41       SAPC     C310     CTL2    -0.180000       12.0110           0
      4519 MEMB     41       SAPC     H10X     HAL2     0.900000E-01   1.00800           0
      4520 MEMB     41       SAPC     H10Y     HAL2     0.900000E-01   1.00800           0
      4521 MEMB     41       SAPC     C311     CTL2    -0.180000       12.0110           0
      4522 MEMB     41       SAPC     H11X     HAL2     0.900000E-01   1.00800           0
      4523 MEMB     41       SAPC     H11Y     HAL2     0.900000E-01   1.00800           0
      4524 MEMB     41       SAPC     C312     CTL2    -0.180000       12.0110           0
      4525 MEMB     41       SAPC     H12X     HAL2     0.900000E-01   1.00800           0
      4526 MEMB     41       SAPC     H12Y     HAL2     0.900000E-01   1.00800           0
      4527 MEMB     41       SAPC     C313     CTL2    -0.180000       12.0110           0
      4528 MEMB     41       SAPC     H13X     HAL2     0.900000E-01   1.00800           0
      4529 MEMB     41       SAPC     H13Y     HAL2     0.900000E-01   1.00800           0
      4530 MEMB     41       SAPC     C314     CTL2    -0.180000       12.0110           0
      4531 MEMB     41       SAPC     H14X     HAL2     0.900000E-01   1.00800           0
      4532 MEMB     41       SAPC     H14Y     HAL2     0.900000E-01   1.00800           0
      4533 MEMB     41       SAPC     C315     CTL2    -0.180000       12.0110           0
      4534 MEMB     41       SAPC     H15X     HAL2     0.900000E-01   1.00800           0
      4535 MEMB     41       SAPC     H15Y     HAL2     0.900000E-01   1.00800           0
      4536 MEMB     41       SAPC     C316     CTL2    -0.180000       12.0110           0
      4537 MEMB     41       SAPC     H16X     HAL2     0.900000E-01   1.00800           0
      4538 MEMB     41       SAPC     H16Y     HAL2     0.900000E-01   1.00800           0
      4539 MEMB     41       SAPC     C317     CTL2    -0.180000       12.0110           0
      4540 MEMB     41       SAPC     H17X     HAL2     0.900000E-01   1.00800           0
      4541 MEMB     41       SAPC     H17Y     HAL2     0.900000E-01   1.00800           0
      4542 MEMB     41       SAPC     C318     CTL3    -0.270000       12.0110           0
      4543 MEMB     41       SAPC     H18X     HAL3     0.900000E-01   1.00800           0
      4544 MEMB     41       SAPC     H18Y     HAL3     0.900000E-01   1.00800           0
      4545 MEMB     41       SAPC     H18Z     HAL3     0.900000E-01   1.00800           0
      4546 MEMB     42       SLPC     N        NTL     -0.600000       14.0070           0
      4547 MEMB     42       SLPC     C13      CTL5    -0.350000       12.0110           0
      4548 MEMB     42       SLPC     H13A     HL       0.250000       1.00800           0
      4549 MEMB     42       SLPC     H13B     HL       0.250000       1.00800           0
      4550 MEMB     42       SLPC     H13C     HL       0.250000       1.00800           0
      4551 MEMB     42       SLPC     C14      CTL5    -0.350000       12.0110           0
      4552 MEMB     42       SLPC     H14A     HL       0.250000       1.00800           0
      4553 MEMB     42       SLPC     H14B     HL       0.250000       1.00800           0
      4554 MEMB     42       SLPC     H14C     HL       0.250000       1.00800           0
      4555 MEMB     42       SLPC     C15      CTL5    -0.350000       12.0110           0
      4556 MEMB     42       SLPC     H15A     HL       0.250000       1.00800           0
      4557 MEMB     42       SLPC     H15B     HL       0.250000       1.00800           0
      4558 MEMB     42       SLPC     H15C     HL       0.250000       1.00800           0
      4559 MEMB     42       SLPC     C12      CTL2    -0.100000       12.0110           0
      4560 MEMB     42       SLPC     H12A     HL       0.250000       1.00800           0
      4561 MEMB     42       SLPC     H12B     HL       0.250000       1.00800           0
      4562 MEMB     42       SLPC     C11      CTL2    -0.800000E-01   12.0110           0
      4563 MEMB     42       SLPC     H11A     HAL2     0.900000E-01   1.00800           0
      4564 MEMB     42       SLPC     H11B     HAL2     0.900000E-01   1.00800           0
      4565 MEMB     42       SLPC     P        PL        1.50000       30.9740           0
      4566 MEMB     42       SLPC     O13      O2L     -0.780000       15.9994           0
      4567 MEMB     42       SLPC     O14      O2L     -0.780000       15.9994           0
      4568 MEMB     42       SLPC     O12      OSLP    -0.570000       15.9994           0
      4569 MEMB     42       SLPC     O11      OSLP    -0.570000       15.9994           0
      4570 MEMB     42       SLPC     C1       CTL2    -0.800000E-01   12.0110           0
      4571 MEMB     42       SLPC     HA       HAL2     0.900000E-01   1.00800           0
      4572 MEMB     42       SLPC     HB       HAL2     0.900000E-01   1.00800           0
      4573 MEMB     42       SLPC     C2       CTL1     0.170000       12.0110           0
      4574 MEMB     42       SLPC     HS       HAL1     0.900000E-01   1.00800           0
      4575 MEMB     42       SLPC     O21      OSL     -0.490000       15.9994           0
      4576 MEMB     42       SLPC     C21      CL       0.900000       12.0110           0
      4577 MEMB     42       SLPC     O22      OBL     -0.630000       15.9994           0
      4578 MEMB     42       SLPC     C22      CTL2    -0.220000       12.0110           0
      4579 MEMB     42       SLPC     H2R      HAL2     0.900000E-01   1.00800           0
      4580 MEMB     42       SLPC     H2S      HAL2     0.900000E-01   1.00800           0
      4581 MEMB     42       SLPC     C3       CTL2     0.800000E-01   12.0110           0
      4582 MEMB     42       SLPC     HX       HAL2     0.900000E-01   1.00800           0
      4583 MEMB     42       SLPC     HY       HAL2     0.900000E-01   1.00800           0
      4584 MEMB     42       SLPC     O31      OSL     -0.490000       15.9994           0
      4585 MEMB     42       SLPC     C31      CL       0.900000       12.0110           0
      4586 MEMB     42       SLPC     O32      OBL     -0.630000       15.9994           0
      4587 MEMB     42       SLPC     C32      CTL2    -0.220000       12.0110           0
      4588 MEMB     42       SLPC     H2X      HAL2     0.900000E-01   1.00800           0
      4589 MEMB     42       SLPC     H2Y      HAL2     0.900000E-01   1.00800           0
      4590 MEMB     42       SLPC     C23      CTL2    -0.180000       12.0110           0
      4591 MEMB     42       SLPC     H3R      HAL2     0.900000E-01   1.00800           0
      4592 MEMB     42       SLPC     H3S      HAL2     0.900000E-01   1.00800           0
      4593 MEMB     42       SLPC     C24      CTL2    -0.180000       12.0110           0
      4594 MEMB     42       SLPC     H4R      HAL2     0.900000E-01   1.00800           0
      4595 MEMB     42       SLPC     H4S      HAL2     0.900000E-01   1.00800           0
      4596 MEMB     42       SLPC     C25      CTL2    -0.180000       12.0110           0
      4597 MEMB     42       SLPC     H5R      HAL2     0.900000E-01   1.00800           0
      4598 MEMB     42       SLPC     H5S      HAL2     0.900000E-01   1.00800           0
      4599 MEMB     42       SLPC     C26      CTL2    -0.180000       12.0110           0
      4600 MEMB     42       SLPC     H6R      HAL2     0.900000E-01   1.00800           0
      4601 MEMB     42       SLPC     H6S      HAL2     0.900000E-01   1.00800           0
      4602 MEMB     42       SLPC     C27      CTL2    -0.180000       12.0110           0
      4603 MEMB     42       SLPC     H7R      HAL2     0.900000E-01   1.00800           0
      4604 MEMB     42       SLPC     H7S      HAL2     0.900000E-01   1.00800           0
      4605 MEMB     42       SLPC     C28      CTL2    -0.180000       12.0110           0
      4606 MEMB     42       SLPC     H8R      HAL2     0.900000E-01   1.00800           0
      4607 MEMB     42       SLPC     H8S      HAL2     0.900000E-01   1.00800           0
      4608 MEMB     42       SLPC     C29      CEL1    -0.150000       12.0110           0
      4609 MEMB     42       SLPC     H9R      HEL1     0.150000       1.00800           0
      4610 MEMB     42       SLPC     C210     CEL1    -0.150000       12.0110           0
      4611 MEMB     42       SLPC     H10R     HEL1     0.150000       1.00800           0
      4612 MEMB     42       SLPC     C211     CTL2    -0.180000       12.0110           0
      4613 MEMB     42       SLPC     H11R     HAL2     0.900000E-01   1.00800           0
      4614 MEMB     42       SLPC     H11S     HAL2     0.900000E-01   1.00800           0
      4615 MEMB     42       SLPC     C212     CEL1    -0.150000       12.0110           0
      4616 MEMB     42       SLPC     H12R     HEL1     0.150000       1.00800           0
      4617 MEMB     42       SLPC     C213     CEL1    -0.150000       12.0110           0
      4618 MEMB     42       SLPC     H13R     HEL1     0.150000       1.00800           0
      4619 MEMB     42       SLPC     C214     CTL2    -0.180000       12.0110           0
      4620 MEMB     42       SLPC     H14R     HAL2     0.900000E-01   1.00800           0
      4621 MEMB     42       SLPC     H14S     HAL2     0.900000E-01   1.00800           0
      4622 MEMB     42       SLPC     C215     CTL2    -0.180000       12.0110           0
      4623 MEMB     42       SLPC     H15R     HAL2     0.900000E-01   1.00800           0
      4624 MEMB     42       SLPC     H15S     HAL2     0.900000E-01   1.00800           0
      4625 MEMB     42       SLPC     C216     CTL2    -0.180000       12.0110           0
      4626 MEMB     42       SLPC     H16R     HAL2     0.900000E-01   1.00800           0
      4627 MEMB     42       SLPC     H16S     HAL2     0.900000E-01   1.00800           0
      4628 MEMB     42       SLPC     C217     CTL2    -0.180000       12.0110           0
      4629 MEMB     42       SLPC     H17R     HAL2     0.900000E-01   1.00800           0
      4630 MEMB     42       SLPC     H17S     HAL2     0.900000E-01   1.00800           0
      4631 MEMB     42       SLPC     C218     CTL3    -0.270000       12.0110           0
      4632 MEMB     42       SLPC     H18R     HAL3     0.900000E-01   1.00800           0
      4633 MEMB     42       SLPC     H18S     HAL3     0.900000E-01   1.00800           0
      4634 MEMB     42       SLPC     H18T     HAL3     0.900000E-01   1.00800           0
      4635 MEMB     42       SLPC     C33      CTL2    -0.180000       12.0110           0
      4636 MEMB     42       SLPC     H3X      HAL2     0.900000E-01   1.00800           0
      4637 MEMB     42       SLPC     H3Y      HAL2     0.900000E-01   1.00800           0
      4638 MEMB     42       SLPC     C34      CTL2    -0.180000       12.0110           0
      4639 MEMB     42       SLPC     H4X      HAL2     0.900000E-01   1.00800           0
      4640 MEMB     42       SLPC     H4Y      HAL2     0.900000E-01   1.00800           0
      4641 MEMB     42       SLPC     C35      CTL2    -0.180000       12.0110           0
      4642 MEMB     42       SLPC     H5X      HAL2     0.900000E-01   1.00800           0
      4643 MEMB     42       SLPC     H5Y      HAL2     0.900000E-01   1.00800           0
      4644 MEMB     42       SLPC     C36      CTL2    -0.180000       12.0110           0
      4645 MEMB     42       SLPC     H6X      HAL2     0.900000E-01   1.00800           0
      4646 MEMB     42       SLPC     H6Y      HAL2     0.900000E-01   1.00800           0
      4647 MEMB     42       SLPC     C37      CTL2    -0.180000       12.0110           0
      4648 MEMB     42       SLPC     H7X      HAL2     0.900000E-01   1.00800           0
      4649 MEMB     42       SLPC     H7Y      HAL2     0.900000E-01   1.00800           0
      4650 MEMB     42       SLPC     C38      CTL2    -0.180000       12.0110           0
      4651 MEMB     42       SLPC     H8X      HAL2     0.900000E-01   1.00800           0
      4652 MEMB     42       SLPC     H8Y      HAL2     0.900000E-01   1.00800           0
      4653 MEMB     42       SLPC     C39      CTL2    -0.180000       12.0110           0
      4654 MEMB     42       SLPC     H9X      HAL2     0.900000E-01   1.00800           0
      4655 MEMB     42       SLPC     H9Y      HAL2     0.900000E-01   1.00800           0
      4656 MEMB     42       SLPC     C310     CTL2    -0.180000       12.0110           0
      4657 MEMB     42       SLPC     H10X     HAL2     0.900000E-01   1.00800           0
      4658 MEMB     42       SLPC     H10Y     HAL2     0.900000E-01   1.00800           0
      4659 MEMB     42       SLPC     C311     CTL2    -0.180000       12.0110           0
      4660 MEMB     42       SLPC     H11X     HAL2     0.900000E-01   1.00800           0
      4661 MEMB     42       SLPC     H11Y     HAL2     0.900000E-01   1.00800           0
      4662 MEMB     42       SLPC     C312     CTL2    -0.180000       12.0110           0
      4663 MEMB     42       SLPC     H12X     HAL2     0.900000E-01   1.00800           0
      4664 MEMB     42       SLPC     H12Y     HAL2     0.900000E-01   1.00800           0
      4665 MEMB     42       SLPC     C313     CTL2    -0.180000       12.0110           0
      4666 MEMB     42       SLPC     H13X     HAL2     0.900000E-01   1.00800           0
      4667 MEMB     42       SLPC     H13Y     HAL2     0.900000E-01   1.00800           0
      4668 MEMB     42       SLPC     C314     CTL2    -0.180000       12.0110           0
      4669 MEMB     42       SLPC     H14X     HAL2     0.900000E-01   1.00800           0
      4670 MEMB     42       SLPC     H14Y     HAL2     0.900000E-01   1.00800           0
      4671 MEMB     42       SLPC     C315     CTL2    -0.180000       12.0110           0
      4672 MEMB     42       SLPC     H15X     HAL2     0.900000E-01   1.00800           0
      4673 MEMB     42       SLPC     H15Y     HAL2     0.900000E-01   1.00800           0
      4674 MEMB     42       SLPC     C316     CTL2    -0.180000       12.0110           0
      4675 MEMB     42       SLPC     H16X     HAL2     0.900000E-01   1.00800           0
      4676 MEMB     42       SLPC     H16Y     HAL2     0.900000E-01   1.00800           0
      4677 MEMB     42       SLPC     C317     CTL2    -0.180000       12.0110           0
      4678 MEMB     42       SLPC     H17X     HAL2     0.900000E-01   1.00800           0
      4679 MEMB     42       SLPC     H17Y     HAL2     0.900000E-01   1.00800           0
      4680 MEMB     42       SLPC     C318     CTL3    -0.270000       12.0110           0
      4681 MEMB     42       SLPC     H18X     HAL3     0.900000E-01   1.00800           0
      4682 MEMB     42       SLPC     H18Y     HAL3     0.900000E-01   1.00800           0
      4683 MEMB     42       SLPC     H18Z     HAL3     0.900000E-01   1.00800           0
      4684 MEMB     43       CHL1     C3       CRL1     0.140000       12.0110           0
      4685 MEMB     43       CHL1     H3       HGA1     0.900000E-01   1.00800           0
      4686 MEMB     43       CHL1     O3       OHL     -0.660000       15.9994           0
      4687 MEMB     43       CHL1     H3'      HOL      0.430000       1.00800           0
      4688 MEMB     43       CHL1     C4       CRL2    -0.180000       12.0110           0
      4689 MEMB     43       CHL1     H4A      HGA2     0.900000E-01   1.00800           0
      4690 MEMB     43       CHL1     H4B      HGA2     0.900000E-01   1.00800           0
      4691 MEMB     43       CHL1     C5       CEL1      0.00000       12.0110           0
      4692 MEMB     43       CHL1     C6       CEL1    -0.150000       12.0110           0
      4693 MEMB     43       CHL1     H6       HEL1     0.150000       1.00800           0
      4694 MEMB     43       CHL1     C7       CRL2    -0.180000       12.0110           0
      4695 MEMB     43       CHL1     H7A      HGA2     0.900000E-01   1.00800           0
      4696 MEMB     43       CHL1     H7B      HGA2     0.900000E-01   1.00800           0
      4697 MEMB     43       CHL1     C8       CRL1    -0.900000E-01   12.0110           0
      4698 MEMB     43       CHL1     H8       HGA1     0.900000E-01   1.00800           0
      4699 MEMB     43       CHL1     C14      CRL1    -0.900000E-01   12.0110           0
      4700 MEMB     43       CHL1     H14      HGA1     0.900000E-01   1.00800           0
      4701 MEMB     43       CHL1     C15      CRL2    -0.180000       12.0110           0
      4702 MEMB     43       CHL1     H15A     HGA2     0.900000E-01   1.00800           0
      4703 MEMB     43       CHL1     H15B     HGA2     0.900000E-01   1.00800           0
      4704 MEMB     43       CHL1     C16      CRL2    -0.180000       12.0110           0
      4705 MEMB     43       CHL1     H16A     HGA2     0.900000E-01   1.00800           0
      4706 MEMB     43       CHL1     H16B     HGA2     0.900000E-01   1.00800           0
      4707 MEMB     43       CHL1     C17      CRL1    -0.900000E-01   12.0110           0
      4708 MEMB     43       CHL1     H17      HGA1     0.900000E-01   1.00800           0
      4709 MEMB     43       CHL1     C13      CRL1      0.00000       12.0110           0
      4710 MEMB     43       CHL1     C18      CTL3    -0.270000       12.0110           0
      4711 MEMB     43       CHL1     H18A     HAL3     0.900000E-01   1.00800           0
      4712 MEMB     43       CHL1     H18B     HAL3     0.900000E-01   1.00800           0
      4713 MEMB     43       CHL1     H18C     HAL3     0.900000E-01   1.00800           0
      4714 MEMB     43       CHL1     C12      CRL2    -0.180000       12.0110           0
      4715 MEMB     43       CHL1     H12A     HGA2     0.900000E-01   1.00800           0
      4716 MEMB     43       CHL1     H12B     HGA2     0.900000E-01   1.00800           0
      4717 MEMB     43       CHL1     C11      CRL2    -0.180000       12.0110           0
      4718 MEMB     43       CHL1     H11A     HGA2     0.900000E-01   1.00800           0
      4719 MEMB     43       CHL1     H11B     HGA2     0.900000E-01   1.00800           0
      4720 MEMB     43       CHL1     C9       CRL1    -0.900000E-01   12.0110           0
      4721 MEMB     43       CHL1     H9       HGA1     0.900000E-01   1.00800           0
      4722 MEMB     43       CHL1     C10      CRL1      0.00000       12.0110           0
      4723 MEMB     43       CHL1     C19      CTL3    -0.270000       12.0110           0
      4724 MEMB     43       CHL1     H19A     HAL3     0.900000E-01   1.00800           0
      4725 MEMB     43       CHL1     H19B     HAL3     0.900000E-01   1.00800           0
      4726 MEMB     43       CHL1     H19C     HAL3     0.900000E-01   1.00800           0
      4727 MEMB     43       CHL1     C1       CRL2    -0.180000       12.0110           0
      4728 MEMB     43       CHL1     H1A      HGA2     0.900000E-01   1.00800           0
      4729 MEMB     43       CHL1     H1B      HGA2     0.900000E-01   1.00800           0
      4730 MEMB     43       CHL1     C2       CRL2    -0.180000       12.0110           0
      4731 MEMB     43       CHL1     H2A      HGA2     0.900000E-01   1.00800           0
      4732 MEMB     43       CHL1     H2B      HGA2     0.900000E-01   1.00800           0
      4733 MEMB     43       CHL1     C20      CTL1    -0.900000E-01   12.0110           0
      4734 MEMB     43       CHL1     H20      HAL1     0.900000E-01   1.00800           0
      4735 MEMB     43       CHL1     C21      CTL3    -0.270000       12.0110           0
      4736 MEMB     43       CHL1     H21A     HAL3     0.900000E-01   1.00800           0
      4737 MEMB     43       CHL1     H21B     HAL3     0.900000E-01   1.00800           0
      4738 MEMB     43       CHL1     H21C     HAL3     0.900000E-01   1.00800           0
      4739 MEMB     43       CHL1     C22      CTL2    -0.180000       12.0110           0
      4740 MEMB     43       CHL1     H22A     HAL2     0.900000E-01   1.00800           0
      4741 MEMB     43       CHL1     H22B     HAL2     0.900000E-01   1.00800           0
      4742 MEMB     43       CHL1     C23      CTL2    -0.180000       12.0110           0
      4743 MEMB     43       CHL1     H23A     HAL2     0.900000E-01   1.00800           0
      4744 MEMB     43       CHL1     H23B     HAL2     0.900000E-01   1.00800           0
      4745 MEMB     43       CHL1     C24      CTL2    -0.180000       12.0110           0
      4746 MEMB     43       CHL1     H24A     HAL2     0.900000E-01   1.00800           0
      4747 MEMB     43       CHL1     H24B     HAL2     0.900000E-01   1.00800           0
      4748 MEMB     43       CHL1     C25      CTL1    -0.900000E-01   12.0110           0
      4749 MEMB     43       CHL1     H25      HAL1     0.900000E-01   1.00800           0
      4750 MEMB     43       CHL1     C26      CTL3    -0.270000       12.0110           0
      4751 MEMB     43       CHL1     H26A     HAL3     0.900000E-01   1.00800           0
      4752 MEMB     43       CHL1     H26B     HAL3     0.900000E-01   1.00800           0
      4753 MEMB     43       CHL1     H26C     HAL3     0.900000E-01   1.00800           0
      4754 MEMB     43       CHL1     C27      CTL3    -0.270000       12.0110           0
      4755 MEMB     43       CHL1     H27A     HAL3     0.900000E-01   1.00800           0
      4756 MEMB     43       CHL1     H27B     HAL3     0.900000E-01   1.00800           0
      4757 MEMB     43       CHL1     H27C     HAL3     0.900000E-01   1.00800           0
      4758 MEMB     44       CHL1     C3       CRL1     0.140000       12.0110           0
      4759 MEMB     44       CHL1     H3       HGA1     0.900000E-01   1.00800           0
      4760 MEMB     44       CHL1     O3       OHL     -0.660000       15.9994           0
      4761 MEMB     44       CHL1     H3'      HOL      0.430000       1.00800           0
      4762 MEMB     44       CHL1     C4       CRL2    -0.180000       12.0110           0
      4763 MEMB     44       CHL1     H4A      HGA2     0.900000E-01   1.00800           0
      4764 MEMB     44       CHL1     H4B      HGA2     0.900000E-01   1.00800           0
      4765 MEMB     44       CHL1     C5       CEL1      0.00000       12.0110           0
      4766 MEMB     44       CHL1     C6       CEL1    -0.150000       12.0110           0
      4767 MEMB     44       CHL1     H6       HEL1     0.150000       1.00800           0
      4768 MEMB     44       CHL1     C7       CRL2    -0.180000       12.0110           0
      4769 MEMB     44       CHL1     H7A      HGA2     0.900000E-01   1.00800           0
      4770 MEMB     44       CHL1     H7B      HGA2     0.900000E-01   1.00800           0
      4771 MEMB     44       CHL1     C8       CRL1    -0.900000E-01   12.0110           0
      4772 MEMB     44       CHL1     H8       HGA1     0.900000E-01   1.00800           0
      4773 MEMB     44       CHL1     C14      CRL1    -0.900000E-01   12.0110           0
      4774 MEMB     44       CHL1     H14      HGA1     0.900000E-01   1.00800           0
      4775 MEMB     44       CHL1     C15      CRL2    -0.180000       12.0110           0
      4776 MEMB     44       CHL1     H15A     HGA2     0.900000E-01   1.00800           0
      4777 MEMB     44       CHL1     H15B     HGA2     0.900000E-01   1.00800           0
      4778 MEMB     44       CHL1     C16      CRL2    -0.180000       12.0110           0
      4779 MEMB     44       CHL1     H16A     HGA2     0.900000E-01   1.00800           0
      4780 MEMB     44       CHL1     H16B     HGA2     0.900000E-01   1.00800           0
      4781 MEMB     44       CHL1     C17      CRL1    -0.900000E-01   12.0110           0
      4782 MEMB     44       CHL1     H17      HGA1     0.900000E-01   1.00800           0
      4783 MEMB     44       CHL1     C13      CRL1      0.00000       12.0110           0
      4784 MEMB     44       CHL1     C18      CTL3    -0.270000       12.0110           0
      4785 MEMB     44       CHL1     H18A     HAL3     0.900000E-01   1.00800           0
      4786 MEMB     44       CHL1     H18B     HAL3     0.900000E-01   1.00800           0
      4787 MEMB     44       CHL1     H18C     HAL3     0.900000E-01   1.00800           0
      4788 MEMB     44       CHL1     C12      CRL2    -0.180000       12.0110           0
      4789 MEMB     44       CHL1     H12A     HGA2     0.900000E-01   1.00800           0
      4790 MEMB     44       CHL1     H12B     HGA2     0.900000E-01   1.00800           0
      4791 MEMB     44       CHL1     C11      CRL2    -0.180000       12.0110           0
      4792 MEMB     44       CHL1     H11A     HGA2     0.900000E-01   1.00800           0
      4793 MEMB     44       CHL1     H11B     HGA2     0.900000E-01   1.00800           0
      4794 MEMB     44       CHL1     C9       CRL1    -0.900000E-01   12.0110           0
      4795 MEMB     44       CHL1     H9       HGA1     0.900000E-01   1.00800           0
      4796 MEMB     44       CHL1     C10      CRL1      0.00000       12.0110           0
      4797 MEMB     44       CHL1     C19      CTL3    -0.270000       12.0110           0
      4798 MEMB     44       CHL1     H19A     HAL3     0.900000E-01   1.00800           0
      4799 MEMB     44       CHL1     H19B     HAL3     0.900000E-01   1.00800           0
      4800 MEMB     44       CHL1     H19C     HAL3     0.900000E-01   1.00800           0
      4801 MEMB     44       CHL1     C1       CRL2    -0.180000       12.0110           0
      4802 MEMB     44       CHL1     H1A      HGA2     0.900000E-01   1.00800           0
      4803 MEMB     44       CHL1     H1B      HGA2     0.900000E-01   1.00800           0
      4804 MEMB     44       CHL1     C2       CRL2    -0.180000       12.0110           0
      4805 MEMB     44       CHL1     H2A      HGA2     0.900000E-01   1.00800           0
      4806 MEMB     44       CHL1     H2B      HGA2     0.900000E-01   1.00800           0
      4807 MEMB     44       CHL1     C20      CTL1    -0.900000E-01   12.0110           0
      4808 MEMB     44       CHL1     H20      HAL1     0.900000E-01   1.00800           0
      4809 MEMB     44       CHL1     C21      CTL3    -0.270000       12.0110           0
      4810 MEMB     44       CHL1     H21A     HAL3     0.900000E-01   1.00800           0
      4811 MEMB     44       CHL1     H21B     HAL3     0.900000E-01   1.00800           0
      4812 MEMB     44       CHL1     H21C     HAL3     0.900000E-01   1.00800           0
      4813 MEMB     44       CHL1     C22      CTL2    -0.180000       12.0110           0
      4814 MEMB     44       CHL1     H22A     HAL2     0.900000E-01   1.00800           0
      4815 MEMB     44       CHL1     H22B     HAL2     0.900000E-01   1.00800           0
      4816 MEMB     44       CHL1     C23      CTL2    -0.180000       12.0110           0
      4817 MEMB     44       CHL1     H23A     HAL2     0.900000E-01   1.00800           0
      4818 MEMB     44       CHL1     H23B     HAL2     0.900000E-01   1.00800           0
      4819 MEMB     44       CHL1     C24      CTL2    -0.180000       12.0110           0
      4820 MEMB     44       CHL1     H24A     HAL2     0.900000E-01   1.00800           0
      4821 MEMB     44       CHL1     H24B     HAL2     0.900000E-01   1.00800           0
      4822 MEMB     44       CHL1     C25      CTL1    -0.900000E-01   12.0110           0
      4823 MEMB     44       CHL1     H25      HAL1     0.900000E-01   1.00800           0
      4824 MEMB     44       CHL1     C26      CTL3    -0.270000       12.0110           0
      4825 MEMB     44       CHL1     H26A     HAL3     0.900000E-01   1.00800           0
      4826 MEMB     44       CHL1     H26B     HAL3     0.900000E-01   1.00800           0
      4827 MEMB     44       CHL1     H26C     HAL3     0.900000E-01   1.00800           0
      4828 MEMB     44       CHL1     C27      CTL3    -0.270000       12.0110           0
      4829 MEMB     44       CHL1     H27A     HAL3     0.900000E-01   1.00800           0
      4830 MEMB     44       CHL1     H27B     HAL3     0.900000E-01   1.00800           0
      4831 MEMB     44       CHL1     H27C     HAL3     0.900000E-01   1.00800           0
      4832 MEMB     45       CHL1     C3       CRL1     0.140000       12.0110           0
      4833 MEMB     45       CHL1     H3       HGA1     0.900000E-01   1.00800           0
      4834 MEMB     45       CHL1     O3       OHL     -0.660000       15.9994           0
      4835 MEMB     45       CHL1     H3'      HOL      0.430000       1.00800           0
      4836 MEMB     45       CHL1     C4       CRL2    -0.180000       12.0110           0
      4837 MEMB     45       CHL1     H4A      HGA2     0.900000E-01   1.00800           0
      4838 MEMB     45       CHL1     H4B      HGA2     0.900000E-01   1.00800           0
      4839 MEMB     45       CHL1     C5       CEL1      0.00000       12.0110           0
      4840 MEMB     45       CHL1     C6       CEL1    -0.150000       12.0110           0
      4841 MEMB     45       CHL1     H6       HEL1     0.150000       1.00800           0
      4842 MEMB     45       CHL1     C7       CRL2    -0.180000       12.0110           0
      4843 MEMB     45       CHL1     H7A      HGA2     0.900000E-01   1.00800           0
      4844 MEMB     45       CHL1     H7B      HGA2     0.900000E-01   1.00800           0
      4845 MEMB     45       CHL1     C8       CRL1    -0.900000E-01   12.0110           0
      4846 MEMB     45       CHL1     H8       HGA1     0.900000E-01   1.00800           0
      4847 MEMB     45       CHL1     C14      CRL1    -0.900000E-01   12.0110           0
      4848 MEMB     45       CHL1     H14      HGA1     0.900000E-01   1.00800           0
      4849 MEMB     45       CHL1     C15      CRL2    -0.180000       12.0110           0
      4850 MEMB     45       CHL1     H15A     HGA2     0.900000E-01   1.00800           0
      4851 MEMB     45       CHL1     H15B     HGA2     0.900000E-01   1.00800           0
      4852 MEMB     45       CHL1     C16      CRL2    -0.180000       12.0110           0
      4853 MEMB     45       CHL1     H16A     HGA2     0.900000E-01   1.00800           0
      4854 MEMB     45       CHL1     H16B     HGA2     0.900000E-01   1.00800           0
      4855 MEMB     45       CHL1     C17      CRL1    -0.900000E-01   12.0110           0
      4856 MEMB     45       CHL1     H17      HGA1     0.900000E-01   1.00800           0
      4857 MEMB     45       CHL1     C13      CRL1      0.00000       12.0110           0
      4858 MEMB     45       CHL1     C18      CTL3    -0.270000       12.0110           0
      4859 MEMB     45       CHL1     H18A     HAL3     0.900000E-01   1.00800           0
      4860 MEMB     45       CHL1     H18B     HAL3     0.900000E-01   1.00800           0
      4861 MEMB     45       CHL1     H18C     HAL3     0.900000E-01   1.00800           0
      4862 MEMB     45       CHL1     C12      CRL2    -0.180000       12.0110           0
      4863 MEMB     45       CHL1     H12A     HGA2     0.900000E-01   1.00800           0
      4864 MEMB     45       CHL1     H12B     HGA2     0.900000E-01   1.00800           0
      4865 MEMB     45       CHL1     C11      CRL2    -0.180000       12.0110           0
      4866 MEMB     45       CHL1     H11A     HGA2     0.900000E-01   1.00800           0
      4867 MEMB     45       CHL1     H11B     HGA2     0.900000E-01   1.00800           0
      4868 MEMB     45       CHL1     C9       CRL1    -0.900000E-01   12.0110           0
      4869 MEMB     45       CHL1     H9       HGA1     0.900000E-01   1.00800           0
      4870 MEMB     45       CHL1     C10      CRL1      0.00000       12.0110           0
      4871 MEMB     45       CHL1     C19      CTL3    -0.270000       12.0110           0
      4872 MEMB     45       CHL1     H19A     HAL3     0.900000E-01   1.00800           0
      4873 MEMB     45       CHL1     H19B     HAL3     0.900000E-01   1.00800           0
      4874 MEMB     45       CHL1     H19C     HAL3     0.900000E-01   1.00800           0
      4875 MEMB     45       CHL1     C1       CRL2    -0.180000       12.0110           0
      4876 MEMB     45       CHL1     H1A      HGA2     0.900000E-01   1.00800           0
      4877 MEMB     45       CHL1     H1B      HGA2     0.900000E-01   1.00800           0
      4878 MEMB     45       CHL1     C2       CRL2    -0.180000       12.0110           0
      4879 MEMB     45       CHL1     H2A      HGA2     0.900000E-01   1.00800           0
      4880 MEMB     45       CHL1     H2B      HGA2     0.900000E-01   1.00800           0
      4881 MEMB     45       CHL1     C20      CTL1    -0.900000E-01   12.0110           0
      4882 MEMB     45       CHL1     H20      HAL1     0.900000E-01   1.00800           0
      4883 MEMB     45       CHL1     C21      CTL3    -0.270000       12.0110           0
      4884 MEMB     45       CHL1     H21A     HAL3     0.900000E-01   1.00800           0
      4885 MEMB     45       CHL1     H21B     HAL3     0.900000E-01   1.00800           0
      4886 MEMB     45       CHL1     H21C     HAL3     0.900000E-01   1.00800           0
      4887 MEMB     45       CHL1     C22      CTL2    -0.180000       12.0110           0
      4888 MEMB     45       CHL1     H22A     HAL2     0.900000E-01   1.00800           0
      4889 MEMB     45       CHL1     H22B     HAL2     0.900000E-01   1.00800           0
      4890 MEMB     45       CHL1     C23      CTL2    -0.180000       12.0110           0
      4891 MEMB     45       CHL1     H23A     HAL2     0.900000E-01   1.00800           0
      4892 MEMB     45       CHL1     H23B     HAL2     0.900000E-01   1.00800           0
      4893 MEMB     45       CHL1     C24      CTL2    -0.180000       12.0110           0
      4894 MEMB     45       CHL1     H24A     HAL2     0.900000E-01   1.00800           0
      4895 MEMB     45       CHL1     H24B     HAL2     0.900000E-01   1.00800           0
      4896 MEMB     45       CHL1     C25      CTL1    -0.900000E-01   12.0110           0
      4897 MEMB     45       CHL1     H25      HAL1     0.900000E-01   1.00800           0
      4898 MEMB     45       CHL1     C26      CTL3    -0.270000       12.0110           0
      4899 MEMB     45       CHL1     H26A     HAL3     0.900000E-01   1.00800           0
      4900 MEMB     45       CHL1     H26B     HAL3     0.900000E-01   1.00800           0
      4901 MEMB     45       CHL1     H26C     HAL3     0.900000E-01   1.00800           0
      4902 MEMB     45       CHL1     C27      CTL3    -0.270000       12.0110           0
      4903 MEMB     45       CHL1     H27A     HAL3     0.900000E-01   1.00800           0
      4904 MEMB     45       CHL1     H27B     HAL3     0.900000E-01   1.00800           0
      4905 MEMB     45       CHL1     H27C     HAL3     0.900000E-01   1.00800           0
      4906 MEMB     46       CHL1     C3       CRL1     0.140000       12.0110           0
      4907 MEMB     46       CHL1     H3       HGA1     0.900000E-01   1.00800           0
      4908 MEMB     46       CHL1     O3       OHL     -0.660000       15.9994           0
      4909 MEMB     46       CHL1     H3'      HOL      0.430000       1.00800           0
      4910 MEMB     46       CHL1     C4       CRL2    -0.180000       12.0110           0
      4911 MEMB     46       CHL1     H4A      HGA2     0.900000E-01   1.00800           0
      4912 MEMB     46       CHL1     H4B      HGA2     0.900000E-01   1.00800           0
      4913 MEMB     46       CHL1     C5       CEL1      0.00000       12.0110           0
      4914 MEMB     46       CHL1     C6       CEL1    -0.150000       12.0110           0
      4915 MEMB     46       CHL1     H6       HEL1     0.150000       1.00800           0
      4916 MEMB     46       CHL1     C7       CRL2    -0.180000       12.0110           0
      4917 MEMB     46       CHL1     H7A      HGA2     0.900000E-01   1.00800           0
      4918 MEMB     46       CHL1     H7B      HGA2     0.900000E-01   1.00800           0
      4919 MEMB     46       CHL1     C8       CRL1    -0.900000E-01   12.0110           0
      4920 MEMB     46       CHL1     H8       HGA1     0.900000E-01   1.00800           0
      4921 MEMB     46       CHL1     C14      CRL1    -0.900000E-01   12.0110           0
      4922 MEMB     46       CHL1     H14      HGA1     0.900000E-01   1.00800           0
      4923 MEMB     46       CHL1     C15      CRL2    -0.180000       12.0110           0
      4924 MEMB     46       CHL1     H15A     HGA2     0.900000E-01   1.00800           0
      4925 MEMB     46       CHL1     H15B     HGA2     0.900000E-01   1.00800           0
      4926 MEMB     46       CHL1     C16      CRL2    -0.180000       12.0110           0
      4927 MEMB     46       CHL1     H16A     HGA2     0.900000E-01   1.00800           0
      4928 MEMB     46       CHL1     H16B     HGA2     0.900000E-01   1.00800           0
      4929 MEMB     46       CHL1     C17      CRL1    -0.900000E-01   12.0110           0
      4930 MEMB     46       CHL1     H17      HGA1     0.900000E-01   1.00800           0
      4931 MEMB     46       CHL1     C13      CRL1      0.00000       12.0110           0
      4932 MEMB     46       CHL1     C18      CTL3    -0.270000       12.0110           0
      4933 MEMB     46       CHL1     H18A     HAL3     0.900000E-01   1.00800           0
      4934 MEMB     46       CHL1     H18B     HAL3     0.900000E-01   1.00800           0
      4935 MEMB     46       CHL1     H18C     HAL3     0.900000E-01   1.00800           0
      4936 MEMB     46       CHL1     C12      CRL2    -0.180000       12.0110           0
      4937 MEMB     46       CHL1     H12A     HGA2     0.900000E-01   1.00800           0
      4938 MEMB     46       CHL1     H12B     HGA2     0.900000E-01   1.00800           0
      4939 MEMB     46       CHL1     C11      CRL2    -0.180000       12.0110           0
      4940 MEMB     46       CHL1     H11A     HGA2     0.900000E-01   1.00800           0
      4941 MEMB     46       CHL1     H11B     HGA2     0.900000E-01   1.00800           0
      4942 MEMB     46       CHL1     C9       CRL1    -0.900000E-01   12.0110           0
      4943 MEMB     46       CHL1     H9       HGA1     0.900000E-01   1.00800           0
      4944 MEMB     46       CHL1     C10      CRL1      0.00000       12.0110           0
      4945 MEMB     46       CHL1     C19      CTL3    -0.270000       12.0110           0
      4946 MEMB     46       CHL1     H19A     HAL3     0.900000E-01   1.00800           0
      4947 MEMB     46       CHL1     H19B     HAL3     0.900000E-01   1.00800           0
      4948 MEMB     46       CHL1     H19C     HAL3     0.900000E-01   1.00800           0
      4949 MEMB     46       CHL1     C1       CRL2    -0.180000       12.0110           0
      4950 MEMB     46       CHL1     H1A      HGA2     0.900000E-01   1.00800           0
      4951 MEMB     46       CHL1     H1B      HGA2     0.900000E-01   1.00800           0
      4952 MEMB     46       CHL1     C2       CRL2    -0.180000       12.0110           0
      4953 MEMB     46       CHL1     H2A      HGA2     0.900000E-01   1.00800           0
      4954 MEMB     46       CHL1     H2B      HGA2     0.900000E-01   1.00800           0
      4955 MEMB     46       CHL1     C20      CTL1    -0.900000E-01   12.0110           0
      4956 MEMB     46       CHL1     H20      HAL1     0.900000E-01   1.00800           0
      4957 MEMB     46       CHL1     C21      CTL3    -0.270000       12.0110           0
      4958 MEMB     46       CHL1     H21A     HAL3     0.900000E-01   1.00800           0
      4959 MEMB     46       CHL1     H21B     HAL3     0.900000E-01   1.00800           0
      4960 MEMB     46       CHL1     H21C     HAL3     0.900000E-01   1.00800           0
      4961 MEMB     46       CHL1     C22      CTL2    -0.180000       12.0110           0
      4962 MEMB     46       CHL1     H22A     HAL2     0.900000E-01   1.00800           0
      4963 MEMB     46       CHL1     H22B     HAL2     0.900000E-01   1.00800           0
      4964 MEMB     46       CHL1     C23      CTL2    -0.180000       12.0110           0
      4965 MEMB     46       CHL1     H23A     HAL2     0.900000E-01   1.00800           0
      4966 MEMB     46       CHL1     H23B     HAL2     0.900000E-01   1.00800           0
      4967 MEMB     46       CHL1     C24      CTL2    -0.180000       12.0110           0
      4968 MEMB     46       CHL1     H24A     HAL2     0.900000E-01   1.00800           0
      4969 MEMB     46       CHL1     H24B     HAL2     0.900000E-01   1.00800           0
      4970 MEMB     46       CHL1     C25      CTL1    -0.900000E-01   12.0110           0
      4971 MEMB     46       CHL1     H25      HAL1     0.900000E-01   1.00800           0
      4972 MEMB     46       CHL1     C26      CTL3    -0.270000       12.0110           0
      4973 MEMB     46       CHL1     H26A     HAL3     0.900000E-01   1.00800           0
      4974 MEMB     46       CHL1     H26B     HAL3     0.900000E-01   1.00800           0
      4975 MEMB     46       CHL1     H26C     HAL3     0.900000E-01   1.00800           0
      4976 MEMB     46       CHL1     C27      CTL3    -0.270000       12.0110           0
      4977 MEMB     46       CHL1     H27A     HAL3     0.900000E-01   1.00800           0
      4978 MEMB     46       CHL1     H27B     HAL3     0.900000E-01   1.00800           0
      4979 MEMB     46       CHL1     H27C     HAL3     0.900000E-01   1.00800           0
      4980 MEMB     47       SAPS     N        NH3L    -0.300000       14.0070           0
      4981 MEMB     47       SAPS     HN1      HCL      0.330000       1.00800           0
      4982 MEMB     47       SAPS     HN2      HCL      0.330000       1.00800           0
      4983 MEMB     47       SAPS     HN3      HCL      0.330000       1.00800           0
      4984 MEMB     47       SAPS     C12      CTL1     0.210000       12.0110           0
      4985 MEMB     47       SAPS     H12A     HBL      0.100000       1.00800           0
      4986 MEMB     47       SAPS     C13      CCL      0.340000       12.0110           0
      4987 MEMB     47       SAPS     O13A     OCL     -0.670000       15.9994           0
      4988 MEMB     47       SAPS     O13B     OCL     -0.670000       15.9994           0
      4989 MEMB     47       SAPS     C11      CTL2    -0.800000E-01   12.0110           0
      4990 MEMB     47       SAPS     H11A     HAL2     0.900000E-01   1.00800           0
      4991 MEMB     47       SAPS     H11B     HAL2     0.900000E-01   1.00800           0
      4992 MEMB     47       SAPS     P        PL        1.50000       30.9740           0
      4993 MEMB     47       SAPS     O13      O2L     -0.780000       15.9994           0
      4994 MEMB     47       SAPS     O14      O2L     -0.780000       15.9994           0
      4995 MEMB     47       SAPS     O12      OSLP    -0.570000       15.9994           0
      4996 MEMB     47       SAPS     O11      OSLP    -0.570000       15.9994           0
      4997 MEMB     47       SAPS     C1       CTL2    -0.800000E-01   12.0110           0
      4998 MEMB     47       SAPS     HA       HAL2     0.900000E-01   1.00800           0
      4999 MEMB     47       SAPS     HB       HAL2     0.900000E-01   1.00800           0
      5000 MEMB     47       SAPS     C2       CTL1     0.170000       12.0110           0
      5001 MEMB     47       SAPS     HS       HAL1     0.900000E-01   1.00800           0
      5002 MEMB     47       SAPS     O21      OSL     -0.490000       15.9994           0
      5003 MEMB     47       SAPS     C21      CL       0.900000       12.0110           0
      5004 MEMB     47       SAPS     O22      OBL     -0.630000       15.9994           0
      5005 MEMB     47       SAPS     C22      CTL2    -0.220000       12.0110           0
      5006 MEMB     47       SAPS     H2R      HAL2     0.900000E-01   1.00800           0
      5007 MEMB     47       SAPS     H2S      HAL2     0.900000E-01   1.00800           0
      5008 MEMB     47       SAPS     C3       CTL2     0.800000E-01   12.0110           0
      5009 MEMB     47       SAPS     HX       HAL2     0.900000E-01   1.00800           0
      5010 MEMB     47       SAPS     HY       HAL2     0.900000E-01   1.00800           0
      5011 MEMB     47       SAPS     O31      OSL     -0.490000       15.9994           0
      5012 MEMB     47       SAPS     C31      CL       0.900000       12.0110           0
      5013 MEMB     47       SAPS     O32      OBL     -0.630000       15.9994           0
      5014 MEMB     47       SAPS     C32      CTL2    -0.220000       12.0110           0
      5015 MEMB     47       SAPS     H2X      HAL2     0.900000E-01   1.00800           0
      5016 MEMB     47       SAPS     H2Y      HAL2     0.900000E-01   1.00800           0
      5017 MEMB     47       SAPS     C23      CTL2    -0.180000       12.0110           0
      5018 MEMB     47       SAPS     H3R      HAL2     0.900000E-01   1.00800           0
      5019 MEMB     47       SAPS     H3S      HAL2     0.900000E-01   1.00800           0
      5020 MEMB     47       SAPS     C24      CTL2    -0.180000       12.0110           0
      5021 MEMB     47       SAPS     H4R      HAL2     0.900000E-01   1.00800           0
      5022 MEMB     47       SAPS     H4S      HAL2     0.900000E-01   1.00800           0
      5023 MEMB     47       SAPS     C25      CEL1    -0.150000       12.0110           0
      5024 MEMB     47       SAPS     H5R      HEL1     0.150000       1.00800           0
      5025 MEMB     47       SAPS     C26      CEL1    -0.150000       12.0110           0
      5026 MEMB     47       SAPS     H6R      HEL1     0.150000       1.00800           0
      5027 MEMB     47       SAPS     C27      CTL2    -0.180000       12.0110           0
      5028 MEMB     47       SAPS     H7R      HAL2     0.900000E-01   1.00800           0
      5029 MEMB     47       SAPS     H7S      HAL2     0.900000E-01   1.00800           0
      5030 MEMB     47       SAPS     C28      CEL1    -0.150000       12.0110           0
      5031 MEMB     47       SAPS     H8R      HEL1     0.150000       1.00800           0
      5032 MEMB     47       SAPS     C29      CEL1    -0.150000       12.0110           0
      5033 MEMB     47       SAPS     H9R      HEL1     0.150000       1.00800           0
      5034 MEMB     47       SAPS     C210     CTL2    -0.180000       12.0110           0
      5035 MEMB     47       SAPS     H10R     HAL2     0.900000E-01   1.00800           0
      5036 MEMB     47       SAPS     H10S     HAL2     0.900000E-01   1.00800           0
      5037 MEMB     47       SAPS     C211     CEL1    -0.150000       12.0110           0
      5038 MEMB     47       SAPS     H11R     HEL1     0.150000       1.00800           0
      5039 MEMB     47       SAPS     C212     CEL1    -0.150000       12.0110           0
      5040 MEMB     47       SAPS     H12R     HEL1     0.150000       1.00800           0
      5041 MEMB     47       SAPS     C213     CTL2    -0.180000       12.0110           0
      5042 MEMB     47       SAPS     H13R     HAL2     0.900000E-01   1.00800           0
      5043 MEMB     47       SAPS     H13S     HAL2     0.900000E-01   1.00800           0
      5044 MEMB     47       SAPS     C214     CEL1    -0.150000       12.0110           0
      5045 MEMB     47       SAPS     H14R     HEL1     0.150000       1.00800           0
      5046 MEMB     47       SAPS     C215     CEL1    -0.150000       12.0110           0
      5047 MEMB     47       SAPS     H15R     HEL1     0.150000       1.00800           0
      5048 MEMB     47       SAPS     C216     CTL2    -0.180000       12.0110           0
      5049 MEMB     47       SAPS     H16R     HAL2     0.900000E-01   1.00800           0
      5050 MEMB     47       SAPS     H16S     HAL2     0.900000E-01   1.00800           0
      5051 MEMB     47       SAPS     C217     CTL2    -0.180000       12.0110           0
      5052 MEMB     47       SAPS     H17R     HAL2     0.900000E-01   1.00800           0
      5053 MEMB     47       SAPS     H17S     HAL2     0.900000E-01   1.00800           0
      5054 MEMB     47       SAPS     C218     CTL2    -0.180000       12.0110           0
      5055 MEMB     47       SAPS     H18R     HAL2     0.900000E-01   1.00800           0
      5056 MEMB     47       SAPS     H18S     HAL2     0.900000E-01   1.00800           0
      5057 MEMB     47       SAPS     C219     CTL2    -0.180000       12.0110           0
      5058 MEMB     47       SAPS     H19R     HAL2     0.900000E-01   1.00800           0
      5059 MEMB     47       SAPS     H19S     HAL2     0.900000E-01   1.00800           0
      5060 MEMB     47       SAPS     C220     CTL3    -0.270000       12.0110           0
      5061 MEMB     47       SAPS     H20R     HAL3     0.900000E-01   1.00800           0
      5062 MEMB     47       SAPS     H20S     HAL3     0.900000E-01   1.00800           0
      5063 MEMB     47       SAPS     H20T     HAL3     0.900000E-01   1.00800           0
      5064 MEMB     47       SAPS     C33      CTL2    -0.180000       12.0110           0
      5065 MEMB     47       SAPS     H3X      HAL2     0.900000E-01   1.00800           0
      5066 MEMB     47       SAPS     H3Y      HAL2     0.900000E-01   1.00800           0
      5067 MEMB     47       SAPS     C34      CTL2    -0.180000       12.0110           0
      5068 MEMB     47       SAPS     H4X      HAL2     0.900000E-01   1.00800           0
      5069 MEMB     47       SAPS     H4Y      HAL2     0.900000E-01   1.00800           0
      5070 MEMB     47       SAPS     C35      CTL2    -0.180000       12.0110           0
      5071 MEMB     47       SAPS     H5X      HAL2     0.900000E-01   1.00800           0
      5072 MEMB     47       SAPS     H5Y      HAL2     0.900000E-01   1.00800           0
      5073 MEMB     47       SAPS     C36      CTL2    -0.180000       12.0110           0
      5074 MEMB     47       SAPS     H6X      HAL2     0.900000E-01   1.00800           0
      5075 MEMB     47       SAPS     H6Y      HAL2     0.900000E-01   1.00800           0
      5076 MEMB     47       SAPS     C37      CTL2    -0.180000       12.0110           0
      5077 MEMB     47       SAPS     H7X      HAL2     0.900000E-01   1.00800           0
      5078 MEMB     47       SAPS     H7Y      HAL2     0.900000E-01   1.00800           0
      5079 MEMB     47       SAPS     C38      CTL2    -0.180000       12.0110           0
      5080 MEMB     47       SAPS     H8X      HAL2     0.900000E-01   1.00800           0
      5081 MEMB     47       SAPS     H8Y      HAL2     0.900000E-01   1.00800           0
      5082 MEMB     47       SAPS     C39      CTL2    -0.180000       12.0110           0
      5083 MEMB     47       SAPS     H9X      HAL2     0.900000E-01   1.00800           0
      5084 MEMB     47       SAPS     H9Y      HAL2     0.900000E-01   1.00800           0
      5085 MEMB     47       SAPS     C310     CTL2    -0.180000       12.0110           0
      5086 MEMB     47       SAPS     H10X     HAL2     0.900000E-01   1.00800           0
      5087 MEMB     47       SAPS     H10Y     HAL2     0.900000E-01   1.00800           0
      5088 MEMB     47       SAPS     C311     CTL2    -0.180000       12.0110           0
      5089 MEMB     47       SAPS     H11X     HAL2     0.900000E-01   1.00800           0
      5090 MEMB     47       SAPS     H11Y     HAL2     0.900000E-01   1.00800           0
      5091 MEMB     47       SAPS     C312     CTL2    -0.180000       12.0110           0
      5092 MEMB     47       SAPS     H12X     HAL2     0.900000E-01   1.00800           0
      5093 MEMB     47       SAPS     H12Y     HAL2     0.900000E-01   1.00800           0
      5094 MEMB     47       SAPS     C313     CTL2    -0.180000       12.0110           0
      5095 MEMB     47       SAPS     H13X     HAL2     0.900000E-01   1.00800           0
      5096 MEMB     47       SAPS     H13Y     HAL2     0.900000E-01   1.00800           0
      5097 MEMB     47       SAPS     C314     CTL2    -0.180000       12.0110           0
      5098 MEMB     47       SAPS     H14X     HAL2     0.900000E-01   1.00800           0
      5099 MEMB     47       SAPS     H14Y     HAL2     0.900000E-01   1.00800           0
      5100 MEMB     47       SAPS     C315     CTL2    -0.180000       12.0110           0
      5101 MEMB     47       SAPS     H15X     HAL2     0.900000E-01   1.00800           0
      5102 MEMB     47       SAPS     H15Y     HAL2     0.900000E-01   1.00800           0
      5103 MEMB     47       SAPS     C316     CTL2    -0.180000       12.0110           0
      5104 MEMB     47       SAPS     H16X     HAL2     0.900000E-01   1.00800           0
      5105 MEMB     47       SAPS     H16Y     HAL2     0.900000E-01   1.00800           0
      5106 MEMB     47       SAPS     C317     CTL2    -0.180000       12.0110           0
      5107 MEMB     47       SAPS     H17X     HAL2     0.900000E-01   1.00800           0
      5108 MEMB     47       SAPS     H17Y     HAL2     0.900000E-01   1.00800           0
      5109 MEMB     47       SAPS     C318     CTL3    -0.270000       12.0110           0
      5110 MEMB     47       SAPS     H18X     HAL3     0.900000E-01   1.00800           0
      5111 MEMB     47       SAPS     H18Y     HAL3     0.900000E-01   1.00800           0
      5112 MEMB     47       SAPS     H18Z     HAL3     0.900000E-01   1.00800           0
      5113 MEMB     48       SAPE     N        NH3L    -0.300000       14.0070           0
      5114 MEMB     48       SAPE     HN1      HCL      0.330000       1.00800           0
      5115 MEMB     48       SAPE     HN2      HCL      0.330000       1.00800           0
      5116 MEMB     48       SAPE     HN3      HCL      0.330000       1.00800           0
      5117 MEMB     48       SAPE     C12      CTL2     0.130000       12.0110           0
      5118 MEMB     48       SAPE     H12A     HAL2     0.900000E-01   1.00800           0
      5119 MEMB     48       SAPE     H12B     HAL2     0.900000E-01   1.00800           0
      5120 MEMB     48       SAPE     C11      CTL2    -0.800000E-01   12.0110           0
      5121 MEMB     48       SAPE     H11A     HAL2     0.900000E-01   1.00800           0
      5122 MEMB     48       SAPE     H11B     HAL2     0.900000E-01   1.00800           0
      5123 MEMB     48       SAPE     P        PL        1.50000       30.9740           0
      5124 MEMB     48       SAPE     O13      O2L     -0.780000       15.9994           0
      5125 MEMB     48       SAPE     O14      O2L     -0.780000       15.9994           0
      5126 MEMB     48       SAPE     O12      OSLP    -0.570000       15.9994           0
      5127 MEMB     48       SAPE     O11      OSLP    -0.570000       15.9994           0
      5128 MEMB     48       SAPE     C1       CTL2    -0.800000E-01   12.0110           0
      5129 MEMB     48       SAPE     HA       HAL2     0.900000E-01   1.00800           0
      5130 MEMB     48       SAPE     HB       HAL2     0.900000E-01   1.00800           0
      5131 MEMB     48       SAPE     C2       CTL1     0.170000       12.0110           0
      5132 MEMB     48       SAPE     HS       HAL1     0.900000E-01   1.00800           0
      5133 MEMB     48       SAPE     O21      OSL     -0.490000       15.9994           0
      5134 MEMB     48       SAPE     C21      CL       0.900000       12.0110           0
      5135 MEMB     48       SAPE     O22      OBL     -0.630000       15.9994           0
      5136 MEMB     48       SAPE     C22      CTL2    -0.220000       12.0110           0
      5137 MEMB     48       SAPE     H2R      HAL2     0.900000E-01   1.00800           0
      5138 MEMB     48       SAPE     H2S      HAL2     0.900000E-01   1.00800           0
      5139 MEMB     48       SAPE     C3       CTL2     0.800000E-01   12.0110           0
      5140 MEMB     48       SAPE     HX       HAL2     0.900000E-01   1.00800           0
      5141 MEMB     48       SAPE     HY       HAL2     0.900000E-01   1.00800           0
      5142 MEMB     48       SAPE     O31      OSL     -0.490000       15.9994           0
      5143 MEMB     48       SAPE     C31      CL       0.900000       12.0110           0
      5144 MEMB     48       SAPE     O32      OBL     -0.630000       15.9994           0
      5145 MEMB     48       SAPE     C32      CTL2    -0.220000       12.0110           0
      5146 MEMB     48       SAPE     H2X      HAL2     0.900000E-01   1.00800           0
      5147 MEMB     48       SAPE     H2Y      HAL2     0.900000E-01   1.00800           0
      5148 MEMB     48       SAPE     C23      CTL2    -0.180000       12.0110           0
      5149 MEMB     48       SAPE     H3R      HAL2     0.900000E-01   1.00800           0
      5150 MEMB     48       SAPE     H3S      HAL2     0.900000E-01   1.00800           0
      5151 MEMB     48       SAPE     C24      CTL2    -0.180000       12.0110           0
      5152 MEMB     48       SAPE     H4R      HAL2     0.900000E-01   1.00800           0
      5153 MEMB     48       SAPE     H4S      HAL2     0.900000E-01   1.00800           0
      5154 MEMB     48       SAPE     C25      CEL1    -0.150000       12.0110           0
      5155 MEMB     48       SAPE     H5R      HEL1     0.150000       1.00800           0
      5156 MEMB     48       SAPE     C26      CEL1    -0.150000       12.0110           0
      5157 MEMB     48       SAPE     H6R      HEL1     0.150000       1.00800           0
      5158 MEMB     48       SAPE     C27      CTL2    -0.180000       12.0110           0
      5159 MEMB     48       SAPE     H7R      HAL2     0.900000E-01   1.00800           0
      5160 MEMB     48       SAPE     H7S      HAL2     0.900000E-01   1.00800           0
      5161 MEMB     48       SAPE     C28      CEL1    -0.150000       12.0110           0
      5162 MEMB     48       SAPE     H8R      HEL1     0.150000       1.00800           0
      5163 MEMB     48       SAPE     C29      CEL1    -0.150000       12.0110           0
      5164 MEMB     48       SAPE     H9R      HEL1     0.150000       1.00800           0
      5165 MEMB     48       SAPE     C210     CTL2    -0.180000       12.0110           0
      5166 MEMB     48       SAPE     H10R     HAL2     0.900000E-01   1.00800           0
      5167 MEMB     48       SAPE     H10S     HAL2     0.900000E-01   1.00800           0
      5168 MEMB     48       SAPE     C211     CEL1    -0.150000       12.0110           0
      5169 MEMB     48       SAPE     H11R     HEL1     0.150000       1.00800           0
      5170 MEMB     48       SAPE     C212     CEL1    -0.150000       12.0110           0
      5171 MEMB     48       SAPE     H12R     HEL1     0.150000       1.00800           0
      5172 MEMB     48       SAPE     C213     CTL2    -0.180000       12.0110           0
      5173 MEMB     48       SAPE     H13R     HAL2     0.900000E-01   1.00800           0
      5174 MEMB     48       SAPE     H13S     HAL2     0.900000E-01   1.00800           0
      5175 MEMB     48       SAPE     C214     CEL1    -0.150000       12.0110           0
      5176 MEMB     48       SAPE     H14R     HEL1     0.150000       1.00800           0
      5177 MEMB     48       SAPE     C215     CEL1    -0.150000       12.0110           0
      5178 MEMB     48       SAPE     H15R     HEL1     0.150000       1.00800           0
      5179 MEMB     48       SAPE     C216     CTL2    -0.180000       12.0110           0
      5180 MEMB     48       SAPE     H16R     HAL2     0.900000E-01   1.00800           0
      5181 MEMB     48       SAPE     H16S     HAL2     0.900000E-01   1.00800           0
      5182 MEMB     48       SAPE     C217     CTL2    -0.180000       12.0110           0
      5183 MEMB     48       SAPE     H17R     HAL2     0.900000E-01   1.00800           0
      5184 MEMB     48       SAPE     H17S     HAL2     0.900000E-01   1.00800           0
      5185 MEMB     48       SAPE     C218     CTL2    -0.180000       12.0110           0
      5186 MEMB     48       SAPE     H18R     HAL2     0.900000E-01   1.00800           0
      5187 MEMB     48       SAPE     H18S     HAL2     0.900000E-01   1.00800           0
      5188 MEMB     48       SAPE     C219     CTL2    -0.180000       12.0110           0
      5189 MEMB     48       SAPE     H19R     HAL2     0.900000E-01   1.00800           0
      5190 MEMB     48       SAPE     H19S     HAL2     0.900000E-01   1.00800           0
      5191 MEMB     48       SAPE     C220     CTL3    -0.270000       12.0110           0
      5192 MEMB     48       SAPE     H20R     HAL3     0.900000E-01   1.00800           0
      5193 MEMB     48       SAPE     H20S     HAL3     0.900000E-01   1.00800           0
      5194 MEMB     48       SAPE     H20T     HAL3     0.900000E-01   1.00800           0
      5195 MEMB     48       SAPE     C33      CTL2    -0.180000       12.0110           0
      5196 MEMB     48       SAPE     H3X      HAL2     0.900000E-01   1.00800           0
      5197 MEMB     48       SAPE     H3Y      HAL2     0.900000E-01   1.00800           0
      5198 MEMB     48       SAPE     C34      CTL2    -0.180000       12.0110           0
      5199 MEMB     48       SAPE     H4X      HAL2     0.900000E-01   1.00800           0
      5200 MEMB     48       SAPE     H4Y      HAL2     0.900000E-01   1.00800           0
      5201 MEMB     48       SAPE     C35      CTL2    -0.180000       12.0110           0
      5202 MEMB     48       SAPE     H5X      HAL2     0.900000E-01   1.00800           0
      5203 MEMB     48       SAPE     H5Y      HAL2     0.900000E-01   1.00800           0
      5204 MEMB     48       SAPE     C36      CTL2    -0.180000       12.0110           0
      5205 MEMB     48       SAPE     H6X      HAL2     0.900000E-01   1.00800           0
      5206 MEMB     48       SAPE     H6Y      HAL2     0.900000E-01   1.00800           0
      5207 MEMB     48       SAPE     C37      CTL2    -0.180000       12.0110           0
      5208 MEMB     48       SAPE     H7X      HAL2     0.900000E-01   1.00800           0
      5209 MEMB     48       SAPE     H7Y      HAL2     0.900000E-01   1.00800           0
      5210 MEMB     48       SAPE     C38      CTL2    -0.180000       12.0110           0
      5211 MEMB     48       SAPE     H8X      HAL2     0.900000E-01   1.00800           0
      5212 MEMB     48       SAPE     H8Y      HAL2     0.900000E-01   1.00800           0
      5213 MEMB     48       SAPE     C39      CTL2    -0.180000       12.0110           0
      5214 MEMB     48       SAPE     H9X      HAL2     0.900000E-01   1.00800           0
      5215 MEMB     48       SAPE     H9Y      HAL2     0.900000E-01   1.00800           0
      5216 MEMB     48       SAPE     C310     CTL2    -0.180000       12.0110           0
      5217 MEMB     48       SAPE     H10X     HAL2     0.900000E-01   1.00800           0
      5218 MEMB     48       SAPE     H10Y     HAL2     0.900000E-01   1.00800           0
      5219 MEMB     48       SAPE     C311     CTL2    -0.180000       12.0110           0
      5220 MEMB     48       SAPE     H11X     HAL2     0.900000E-01   1.00800           0
      5221 MEMB     48       SAPE     H11Y     HAL2     0.900000E-01   1.00800           0
      5222 MEMB     48       SAPE     C312     CTL2    -0.180000       12.0110           0
      5223 MEMB     48       SAPE     H12X     HAL2     0.900000E-01   1.00800           0
      5224 MEMB     48       SAPE     H12Y     HAL2     0.900000E-01   1.00800           0
      5225 MEMB     48       SAPE     C313     CTL2    -0.180000       12.0110           0
      5226 MEMB     48       SAPE     H13X     HAL2     0.900000E-01   1.00800           0
      5227 MEMB     48       SAPE     H13Y     HAL2     0.900000E-01   1.00800           0
      5228 MEMB     48       SAPE     C314     CTL2    -0.180000       12.0110           0
      5229 MEMB     48       SAPE     H14X     HAL2     0.900000E-01   1.00800           0
      5230 MEMB     48       SAPE     H14Y     HAL2     0.900000E-01   1.00800           0
      5231 MEMB     48       SAPE     C315     CTL2    -0.180000       12.0110           0
      5232 MEMB     48       SAPE     H15X     HAL2     0.900000E-01   1.00800           0
      5233 MEMB     48       SAPE     H15Y     HAL2     0.900000E-01   1.00800           0
      5234 MEMB     48       SAPE     C316     CTL2    -0.180000       12.0110           0
      5235 MEMB     48       SAPE     H16X     HAL2     0.900000E-01   1.00800           0
      5236 MEMB     48       SAPE     H16Y     HAL2     0.900000E-01   1.00800           0
      5237 MEMB     48       SAPE     C317     CTL2    -0.180000       12.0110           0
      5238 MEMB     48       SAPE     H17X     HAL2     0.900000E-01   1.00800           0
      5239 MEMB     48       SAPE     H17Y     HAL2     0.900000E-01   1.00800           0
      5240 MEMB     48       SAPE     C318     CTL3    -0.270000       12.0110           0
      5241 MEMB     48       SAPE     H18X     HAL3     0.900000E-01   1.00800           0
      5242 MEMB     48       SAPE     H18Y     HAL3     0.900000E-01   1.00800           0
      5243 MEMB     48       SAPE     H18Z     HAL3     0.900000E-01   1.00800           0
      5244 MEMB     49       CHL1     C3       CRL1     0.140000       12.0110           0
      5245 MEMB     49       CHL1     H3       HGA1     0.900000E-01   1.00800           0
      5246 MEMB     49       CHL1     O3       OHL     -0.660000       15.9994           0
      5247 MEMB     49       CHL1     H3'      HOL      0.430000       1.00800           0
      5248 MEMB     49       CHL1     C4       CRL2    -0.180000       12.0110           0
      5249 MEMB     49       CHL1     H4A      HGA2     0.900000E-01   1.00800           0
      5250 MEMB     49       CHL1     H4B      HGA2     0.900000E-01   1.00800           0
      5251 MEMB     49       CHL1     C5       CEL1      0.00000       12.0110           0
      5252 MEMB     49       CHL1     C6       CEL1    -0.150000       12.0110           0
      5253 MEMB     49       CHL1     H6       HEL1     0.150000       1.00800           0
      5254 MEMB     49       CHL1     C7       CRL2    -0.180000       12.0110           0
      5255 MEMB     49       CHL1     H7A      HGA2     0.900000E-01   1.00800           0
      5256 MEMB     49       CHL1     H7B      HGA2     0.900000E-01   1.00800           0
      5257 MEMB     49       CHL1     C8       CRL1    -0.900000E-01   12.0110           0
      5258 MEMB     49       CHL1     H8       HGA1     0.900000E-01   1.00800           0
      5259 MEMB     49       CHL1     C14      CRL1    -0.900000E-01   12.0110           0
      5260 MEMB     49       CHL1     H14      HGA1     0.900000E-01   1.00800           0
      5261 MEMB     49       CHL1     C15      CRL2    -0.180000       12.0110           0
      5262 MEMB     49       CHL1     H15A     HGA2     0.900000E-01   1.00800           0
      5263 MEMB     49       CHL1     H15B     HGA2     0.900000E-01   1.00800           0
      5264 MEMB     49       CHL1     C16      CRL2    -0.180000       12.0110           0
      5265 MEMB     49       CHL1     H16A     HGA2     0.900000E-01   1.00800           0
      5266 MEMB     49       CHL1     H16B     HGA2     0.900000E-01   1.00800           0
      5267 MEMB     49       CHL1     C17      CRL1    -0.900000E-01   12.0110           0
      5268 MEMB     49       CHL1     H17      HGA1     0.900000E-01   1.00800           0
      5269 MEMB     49       CHL1     C13      CRL1      0.00000       12.0110           0
      5270 MEMB     49       CHL1     C18      CTL3    -0.270000       12.0110           0
      5271 MEMB     49       CHL1     H18A     HAL3     0.900000E-01   1.00800           0
      5272 MEMB     49       CHL1     H18B     HAL3     0.900000E-01   1.00800           0
      5273 MEMB     49       CHL1     H18C     HAL3     0.900000E-01   1.00800           0
      5274 MEMB     49       CHL1     C12      CRL2    -0.180000       12.0110           0
      5275 MEMB     49       CHL1     H12A     HGA2     0.900000E-01   1.00800           0
      5276 MEMB     49       CHL1     H12B     HGA2     0.900000E-01   1.00800           0
      5277 MEMB     49       CHL1     C11      CRL2    -0.180000       12.0110           0
      5278 MEMB     49       CHL1     H11A     HGA2     0.900000E-01   1.00800           0
      5279 MEMB     49       CHL1     H11B     HGA2     0.900000E-01   1.00800           0
      5280 MEMB     49       CHL1     C9       CRL1    -0.900000E-01   12.0110           0
      5281 MEMB     49       CHL1     H9       HGA1     0.900000E-01   1.00800           0
      5282 MEMB     49       CHL1     C10      CRL1      0.00000       12.0110           0
      5283 MEMB     49       CHL1     C19      CTL3    -0.270000       12.0110           0
      5284 MEMB     49       CHL1     H19A     HAL3     0.900000E-01   1.00800           0
      5285 MEMB     49       CHL1     H19B     HAL3     0.900000E-01   1.00800           0
      5286 MEMB     49       CHL1     H19C     HAL3     0.900000E-01   1.00800           0
      5287 MEMB     49       CHL1     C1       CRL2    -0.180000       12.0110           0
      5288 MEMB     49       CHL1     H1A      HGA2     0.900000E-01   1.00800           0
      5289 MEMB     49       CHL1     H1B      HGA2     0.900000E-01   1.00800           0
      5290 MEMB     49       CHL1     C2       CRL2    -0.180000       12.0110           0
      5291 MEMB     49       CHL1     H2A      HGA2     0.900000E-01   1.00800           0
      5292 MEMB     49       CHL1     H2B      HGA2     0.900000E-01   1.00800           0
      5293 MEMB     49       CHL1     C20      CTL1    -0.900000E-01   12.0110           0
      5294 MEMB     49       CHL1     H20      HAL1     0.900000E-01   1.00800           0
      5295 MEMB     49       CHL1     C21      CTL3    -0.270000       12.0110           0
      5296 MEMB     49       CHL1     H21A     HAL3     0.900000E-01   1.00800           0
      5297 MEMB     49       CHL1     H21B     HAL3     0.900000E-01   1.00800           0
      5298 MEMB     49       CHL1     H21C     HAL3     0.900000E-01   1.00800           0
      5299 MEMB     49       CHL1     C22      CTL2    -0.180000       12.0110           0
      5300 MEMB     49       CHL1     H22A     HAL2     0.900000E-01   1.00800           0
      5301 MEMB     49       CHL1     H22B     HAL2     0.900000E-01   1.00800           0
      5302 MEMB     49       CHL1     C23      CTL2    -0.180000       12.0110           0
      5303 MEMB     49       CHL1     H23A     HAL2     0.900000E-01   1.00800           0
      5304 MEMB     49       CHL1     H23B     HAL2     0.900000E-01   1.00800           0
      5305 MEMB     49       CHL1     C24      CTL2    -0.180000       12.0110           0
      5306 MEMB     49       CHL1     H24A     HAL2     0.900000E-01   1.00800           0
      5307 MEMB     49       CHL1     H24B     HAL2     0.900000E-01   1.00800           0
      5308 MEMB     49       CHL1     C25      CTL1    -0.900000E-01   12.0110           0
      5309 MEMB     49       CHL1     H25      HAL1     0.900000E-01   1.00800           0
      5310 MEMB     49       CHL1     C26      CTL3    -0.270000       12.0110           0
      5311 MEMB     49       CHL1     H26A     HAL3     0.900000E-01   1.00800           0
      5312 MEMB     49       CHL1     H26B     HAL3     0.900000E-01   1.00800           0
      5313 MEMB     49       CHL1     H26C     HAL3     0.900000E-01   1.00800           0
      5314 MEMB     49       CHL1     C27      CTL3    -0.270000       12.0110           0
      5315 MEMB     49       CHL1     H27A     HAL3     0.900000E-01   1.00800           0
      5316 MEMB     49       CHL1     H27B     HAL3     0.900000E-01   1.00800           0
      5317 MEMB     49       CHL1     H27C     HAL3     0.900000E-01   1.00800           0
      5318 MEMB     50       CHL1     C3       CRL1     0.140000       12.0110           0
      5319 MEMB     50       CHL1     H3       HGA1     0.900000E-01   1.00800           0
      5320 MEMB     50       CHL1     O3       OHL     -0.660000       15.9994           0
      5321 MEMB     50       CHL1     H3'      HOL      0.430000       1.00800           0
      5322 MEMB     50       CHL1     C4       CRL2    -0.180000       12.0110           0
      5323 MEMB     50       CHL1     H4A      HGA2     0.900000E-01   1.00800           0
      5324 MEMB     50       CHL1     H4B      HGA2     0.900000E-01   1.00800           0
      5325 MEMB     50       CHL1     C5       CEL1      0.00000       12.0110           0
      5326 MEMB     50       CHL1     C6       CEL1    -0.150000       12.0110           0
      5327 MEMB     50       CHL1     H6       HEL1     0.150000       1.00800           0
      5328 MEMB     50       CHL1     C7       CRL2    -0.180000       12.0110           0
      5329 MEMB     50       CHL1     H7A      HGA2     0.900000E-01   1.00800           0
      5330 MEMB     50       CHL1     H7B      HGA2     0.900000E-01   1.00800           0
      5331 MEMB     50       CHL1     C8       CRL1    -0.900000E-01   12.0110           0
      5332 MEMB     50       CHL1     H8       HGA1     0.900000E-01   1.00800           0
      5333 MEMB     50       CHL1     C14      CRL1    -0.900000E-01   12.0110           0
      5334 MEMB     50       CHL1     H14      HGA1     0.900000E-01   1.00800           0
      5335 MEMB     50       CHL1     C15      CRL2    -0.180000       12.0110           0
      5336 MEMB     50       CHL1     H15A     HGA2     0.900000E-01   1.00800           0
      5337 MEMB     50       CHL1     H15B     HGA2     0.900000E-01   1.00800           0
      5338 MEMB     50       CHL1     C16      CRL2    -0.180000       12.0110           0
      5339 MEMB     50       CHL1     H16A     HGA2     0.900000E-01   1.00800           0
      5340 MEMB     50       CHL1     H16B     HGA2     0.900000E-01   1.00800           0
      5341 MEMB     50       CHL1     C17      CRL1    -0.900000E-01   12.0110           0
      5342 MEMB     50       CHL1     H17      HGA1     0.900000E-01   1.00800           0
      5343 MEMB     50       CHL1     C13      CRL1      0.00000       12.0110           0
      5344 MEMB     50       CHL1     C18      CTL3    -0.270000       12.0110           0
      5345 MEMB     50       CHL1     H18A     HAL3     0.900000E-01   1.00800           0
      5346 MEMB     50       CHL1     H18B     HAL3     0.900000E-01   1.00800           0
      5347 MEMB     50       CHL1     H18C     HAL3     0.900000E-01   1.00800           0
      5348 MEMB     50       CHL1     C12      CRL2    -0.180000       12.0110           0
      5349 MEMB     50       CHL1     H12A     HGA2     0.900000E-01   1.00800           0
      5350 MEMB     50       CHL1     H12B     HGA2     0.900000E-01   1.00800           0
      5351 MEMB     50       CHL1     C11      CRL2    -0.180000       12.0110           0
      5352 MEMB     50       CHL1     H11A     HGA2     0.900000E-01   1.00800           0
      5353 MEMB     50       CHL1     H11B     HGA2     0.900000E-01   1.00800           0
      5354 MEMB     50       CHL1     C9       CRL1    -0.900000E-01   12.0110           0
      5355 MEMB     50       CHL1     H9       HGA1     0.900000E-01   1.00800           0
      5356 MEMB     50       CHL1     C10      CRL1      0.00000       12.0110           0
      5357 MEMB     50       CHL1     C19      CTL3    -0.270000       12.0110           0
      5358 MEMB     50       CHL1     H19A     HAL3     0.900000E-01   1.00800           0
      5359 MEMB     50       CHL1     H19B     HAL3     0.900000E-01   1.00800           0
      5360 MEMB     50       CHL1     H19C     HAL3     0.900000E-01   1.00800           0
      5361 MEMB     50       CHL1     C1       CRL2    -0.180000       12.0110           0
      5362 MEMB     50       CHL1     H1A      HGA2     0.900000E-01   1.00800           0
      5363 MEMB     50       CHL1     H1B      HGA2     0.900000E-01   1.00800           0
      5364 MEMB     50       CHL1     C2       CRL2    -0.180000       12.0110           0
      5365 MEMB     50       CHL1     H2A      HGA2     0.900000E-01   1.00800           0
      5366 MEMB     50       CHL1     H2B      HGA2     0.900000E-01   1.00800           0
      5367 MEMB     50       CHL1     C20      CTL1    -0.900000E-01   12.0110           0
      5368 MEMB     50       CHL1     H20      HAL1     0.900000E-01   1.00800           0
      5369 MEMB     50       CHL1     C21      CTL3    -0.270000       12.0110           0
      5370 MEMB     50       CHL1     H21A     HAL3     0.900000E-01   1.00800           0
      5371 MEMB     50       CHL1     H21B     HAL3     0.900000E-01   1.00800           0
      5372 MEMB     50       CHL1     H21C     HAL3     0.900000E-01   1.00800           0
      5373 MEMB     50       CHL1     C22      CTL2    -0.180000       12.0110           0
      5374 MEMB     50       CHL1     H22A     HAL2     0.900000E-01   1.00800           0
      5375 MEMB     50       CHL1     H22B     HAL2     0.900000E-01   1.00800           0
      5376 MEMB     50       CHL1     C23      CTL2    -0.180000       12.0110           0
      5377 MEMB     50       CHL1     H23A     HAL2     0.900000E-01   1.00800           0
      5378 MEMB     50       CHL1     H23B     HAL2     0.900000E-01   1.00800           0
      5379 MEMB     50       CHL1     C24      CTL2    -0.180000       12.0110           0
      5380 MEMB     50       CHL1     H24A     HAL2     0.900000E-01   1.00800           0
      5381 MEMB     50       CHL1     H24B     HAL2     0.900000E-01   1.00800           0
      5382 MEMB     50       CHL1     C25      CTL1    -0.900000E-01   12.0110           0
      5383 MEMB     50       CHL1     H25      HAL1     0.900000E-01   1.00800           0
      5384 MEMB     50       CHL1     C26      CTL3    -0.270000       12.0110           0
      5385 MEMB     50       CHL1     H26A     HAL3     0.900000E-01   1.00800           0
      5386 MEMB     50       CHL1     H26B     HAL3     0.900000E-01   1.00800           0
      5387 MEMB     50       CHL1     H26C     HAL3     0.900000E-01   1.00800           0
      5388 MEMB     50       CHL1     C27      CTL3    -0.270000       12.0110           0
      5389 MEMB     50       CHL1     H27A     HAL3     0.900000E-01   1.00800           0
      5390 MEMB     50       CHL1     H27B     HAL3     0.900000E-01   1.00800           0
      5391 MEMB     50       CHL1     H27C     HAL3     0.900000E-01   1.00800           0
      5392 MEMB     51       SAPC     N        NTL     -0.600000       14.0070           0
      5393 MEMB     51       SAPC     C12      CTL2    -0.100000       12.0110           0
      5394 MEMB     51       SAPC     H12A     HL       0.250000       1.00800           0
      5395 MEMB     51       SAPC     H12B     HL       0.250000       1.00800           0
      5396 MEMB     51       SAPC     C13      CTL5    -0.350000       12.0110           0
      5397 MEMB     51       SAPC     H13A     HL       0.250000       1.00800           0
      5398 MEMB     51       SAPC     H13B     HL       0.250000       1.00800           0
      5399 MEMB     51       SAPC     H13C     HL       0.250000       1.00800           0
      5400 MEMB     51       SAPC     C14      CTL5    -0.350000       12.0110           0
      5401 MEMB     51       SAPC     H14A     HL       0.250000       1.00800           0
      5402 MEMB     51       SAPC     H14B     HL       0.250000       1.00800           0
      5403 MEMB     51       SAPC     H14C     HL       0.250000       1.00800           0
      5404 MEMB     51       SAPC     C15      CTL5    -0.350000       12.0110           0
      5405 MEMB     51       SAPC     H15A     HL       0.250000       1.00800           0
      5406 MEMB     51       SAPC     H15B     HL       0.250000       1.00800           0
      5407 MEMB     51       SAPC     H15C     HL       0.250000       1.00800           0
      5408 MEMB     51       SAPC     C11      CTL2    -0.800000E-01   12.0110           0
      5409 MEMB     51       SAPC     H11A     HAL2     0.900000E-01   1.00800           0
      5410 MEMB     51       SAPC     H11B     HAL2     0.900000E-01   1.00800           0
      5411 MEMB     51       SAPC     P        PL        1.50000       30.9740           0
      5412 MEMB     51       SAPC     O13      O2L     -0.780000       15.9994           0
      5413 MEMB     51       SAPC     O14      O2L     -0.780000       15.9994           0
      5414 MEMB     51       SAPC     O12      OSLP    -0.570000       15.9994           0
      5415 MEMB     51       SAPC     O11      OSLP    -0.570000       15.9994           0
      5416 MEMB     51       SAPC     C1       CTL2    -0.800000E-01   12.0110           0
      5417 MEMB     51       SAPC     HA       HAL2     0.900000E-01   1.00800           0
      5418 MEMB     51       SAPC     HB       HAL2     0.900000E-01   1.00800           0
      5419 MEMB     51       SAPC     C2       CTL1     0.170000       12.0110           0
      5420 MEMB     51       SAPC     HS       HAL1     0.900000E-01   1.00800           0
      5421 MEMB     51       SAPC     O21      OSL     -0.490000       15.9994           0
      5422 MEMB     51       SAPC     C21      CL       0.900000       12.0110           0
      5423 MEMB     51       SAPC     O22      OBL     -0.630000       15.9994           0
      5424 MEMB     51       SAPC     C22      CTL2    -0.220000       12.0110           0
      5425 MEMB     51       SAPC     H2R      HAL2     0.900000E-01   1.00800           0
      5426 MEMB     51       SAPC     H2S      HAL2     0.900000E-01   1.00800           0
      5427 MEMB     51       SAPC     C3       CTL2     0.800000E-01   12.0110           0
      5428 MEMB     51       SAPC     HX       HAL2     0.900000E-01   1.00800           0
      5429 MEMB     51       SAPC     HY       HAL2     0.900000E-01   1.00800           0
      5430 MEMB     51       SAPC     O31      OSL     -0.490000       15.9994           0
      5431 MEMB     51       SAPC     C31      CL       0.900000       12.0110           0
      5432 MEMB     51       SAPC     O32      OBL     -0.630000       15.9994           0
      5433 MEMB     51       SAPC     C32      CTL2    -0.220000       12.0110           0
      5434 MEMB     51       SAPC     H2X      HAL2     0.900000E-01   1.00800           0
      5435 MEMB     51       SAPC     H2Y      HAL2     0.900000E-01   1.00800           0
      5436 MEMB     51       SAPC     C23      CTL2    -0.180000       12.0110           0
      5437 MEMB     51       SAPC     H3R      HAL2     0.900000E-01   1.00800           0
      5438 MEMB     51       SAPC     H3S      HAL2     0.900000E-01   1.00800           0
      5439 MEMB     51       SAPC     C24      CTL2    -0.180000       12.0110           0
      5440 MEMB     51       SAPC     H4R      HAL2     0.900000E-01   1.00800           0
      5441 MEMB     51       SAPC     H4S      HAL2     0.900000E-01   1.00800           0
      5442 MEMB     51       SAPC     C25      CEL1    -0.150000       12.0110           0
      5443 MEMB     51       SAPC     H5R      HEL1     0.150000       1.00800           0
      5444 MEMB     51       SAPC     C26      CEL1    -0.150000       12.0110           0
      5445 MEMB     51       SAPC     H6R      HEL1     0.150000       1.00800           0
      5446 MEMB     51       SAPC     C27      CTL2    -0.180000       12.0110           0
      5447 MEMB     51       SAPC     H7R      HAL2     0.900000E-01   1.00800           0
      5448 MEMB     51       SAPC     H7S      HAL2     0.900000E-01   1.00800           0
      5449 MEMB     51       SAPC     C28      CEL1    -0.150000       12.0110           0
      5450 MEMB     51       SAPC     H8R      HEL1     0.150000       1.00800           0
      5451 MEMB     51       SAPC     C29      CEL1    -0.150000       12.0110           0
      5452 MEMB     51       SAPC     H9R      HEL1     0.150000       1.00800           0
      5453 MEMB     51       SAPC     C210     CTL2    -0.180000       12.0110           0
      5454 MEMB     51       SAPC     H10R     HAL2     0.900000E-01   1.00800           0
      5455 MEMB     51       SAPC     H10S     HAL2     0.900000E-01   1.00800           0
      5456 MEMB     51       SAPC     C211     CEL1    -0.150000       12.0110           0
      5457 MEMB     51       SAPC     H11R     HEL1     0.150000       1.00800           0
      5458 MEMB     51       SAPC     C212     CEL1    -0.150000       12.0110           0
      5459 MEMB     51       SAPC     H12R     HEL1     0.150000       1.00800           0
      5460 MEMB     51       SAPC     C213     CTL2    -0.180000       12.0110           0
      5461 MEMB     51       SAPC     H13R     HAL2     0.900000E-01   1.00800           0
      5462 MEMB     51       SAPC     H13S     HAL2     0.900000E-01   1.00800           0
      5463 MEMB     51       SAPC     C214     CEL1    -0.150000       12.0110           0
      5464 MEMB     51       SAPC     H14R     HEL1     0.150000       1.00800           0
      5465 MEMB     51       SAPC     C215     CEL1    -0.150000       12.0110           0
      5466 MEMB     51       SAPC     H15R     HEL1     0.150000       1.00800           0
      5467 MEMB     51       SAPC     C216     CTL2    -0.180000       12.0110           0
      5468 MEMB     51       SAPC     H16R     HAL2     0.900000E-01   1.00800           0
      5469 MEMB     51       SAPC     H16S     HAL2     0.900000E-01   1.00800           0
      5470 MEMB     51       SAPC     C217     CTL2    -0.180000       12.0110           0
      5471 MEMB     51       SAPC     H17R     HAL2     0.900000E-01   1.00800           0
      5472 MEMB     51       SAPC     H17S     HAL2     0.900000E-01   1.00800           0
      5473 MEMB     51       SAPC     C218     CTL2    -0.270000       12.0110           0
      5474 MEMB     51       SAPC     H18R     HAL2     0.900000E-01   1.00800           0
      5475 MEMB     51       SAPC     H18S     HAL2     0.900000E-01   1.00800           0
      5476 MEMB     51       SAPC     C219     CTL2    -0.180000       12.0110           0
      5477 MEMB     51       SAPC     H19R     HAL2     0.900000E-01   1.00800           0
      5478 MEMB     51       SAPC     H19S     HAL2     0.900000E-01   1.00800           0
      5479 MEMB     51       SAPC     C220     CTL3    -0.180000       12.0110           0
      5480 MEMB     51       SAPC     H20R     HAL3     0.900000E-01   1.00800           0
      5481 MEMB     51       SAPC     H20S     HAL3     0.900000E-01   1.00800           0
      5482 MEMB     51       SAPC     H20T     HAL3     0.900000E-01   1.00800           0
      5483 MEMB     51       SAPC     C33      CTL2    -0.180000       12.0110           0
      5484 MEMB     51       SAPC     H3X      HAL2     0.900000E-01   1.00800           0
      5485 MEMB     51       SAPC     H3Y      HAL2     0.900000E-01   1.00800           0
      5486 MEMB     51       SAPC     C34      CTL2    -0.180000       12.0110           0
      5487 MEMB     51       SAPC     H4X      HAL2     0.900000E-01   1.00800           0
      5488 MEMB     51       SAPC     H4Y      HAL2     0.900000E-01   1.00800           0
      5489 MEMB     51       SAPC     C35      CTL2    -0.180000       12.0110           0
      5490 MEMB     51       SAPC     H5X      HAL2     0.900000E-01   1.00800           0
      5491 MEMB     51       SAPC     H5Y      HAL2     0.900000E-01   1.00800           0
      5492 MEMB     51       SAPC     C36      CTL2    -0.180000       12.0110           0
      5493 MEMB     51       SAPC     H6X      HAL2     0.900000E-01   1.00800           0
      5494 MEMB     51       SAPC     H6Y      HAL2     0.900000E-01   1.00800           0
      5495 MEMB     51       SAPC     C37      CTL2    -0.180000       12.0110           0
      5496 MEMB     51       SAPC     H7X      HAL2     0.900000E-01   1.00800           0
      5497 MEMB     51       SAPC     H7Y      HAL2     0.900000E-01   1.00800           0
      5498 MEMB     51       SAPC     C38      CTL2    -0.180000       12.0110           0
      5499 MEMB     51       SAPC     H8X      HAL2     0.900000E-01   1.00800           0
      5500 MEMB     51       SAPC     H8Y      HAL2     0.900000E-01   1.00800           0
      5501 MEMB     51       SAPC     C39      CTL2    -0.180000       12.0110           0
      5502 MEMB     51       SAPC     H9X      HAL2     0.900000E-01   1.00800           0
      5503 MEMB     51       SAPC     H9Y      HAL2     0.900000E-01   1.00800           0
      5504 MEMB     51       SAPC     C310     CTL2    -0.180000       12.0110           0
      5505 MEMB     51       SAPC     H10X     HAL2     0.900000E-01   1.00800           0
      5506 MEMB     51       SAPC     H10Y     HAL2     0.900000E-01   1.00800           0
      5507 MEMB     51       SAPC     C311     CTL2    -0.180000       12.0110           0
      5508 MEMB     51       SAPC     H11X     HAL2     0.900000E-01   1.00800           0
      5509 MEMB     51       SAPC     H11Y     HAL2     0.900000E-01   1.00800           0
      5510 MEMB     51       SAPC     C312     CTL2    -0.180000       12.0110           0
      5511 MEMB     51       SAPC     H12X     HAL2     0.900000E-01   1.00800           0
      5512 MEMB     51       SAPC     H12Y     HAL2     0.900000E-01   1.00800           0
      5513 MEMB     51       SAPC     C313     CTL2    -0.180000       12.0110           0
      5514 MEMB     51       SAPC     H13X     HAL2     0.900000E-01   1.00800           0
      5515 MEMB     51       SAPC     H13Y     HAL2     0.900000E-01   1.00800           0
      5516 MEMB     51       SAPC     C314     CTL2    -0.180000       12.0110           0
      5517 MEMB     51       SAPC     H14X     HAL2     0.900000E-01   1.00800           0
      5518 MEMB     51       SAPC     H14Y     HAL2     0.900000E-01   1.00800           0
      5519 MEMB     51       SAPC     C315     CTL2    -0.180000       12.0110           0
      5520 MEMB     51       SAPC     H15X     HAL2     0.900000E-01   1.00800           0
      5521 MEMB     51       SAPC     H15Y     HAL2     0.900000E-01   1.00800           0
      5522 MEMB     51       SAPC     C316     CTL2    -0.180000       12.0110           0
      5523 MEMB     51       SAPC     H16X     HAL2     0.900000E-01   1.00800           0
      5524 MEMB     51       SAPC     H16Y     HAL2     0.900000E-01   1.00800           0
      5525 MEMB     51       SAPC     C317     CTL2    -0.180000       12.0110           0
      5526 MEMB     51       SAPC     H17X     HAL2     0.900000E-01   1.00800           0
      5527 MEMB     51       SAPC     H17Y     HAL2     0.900000E-01   1.00800           0
      5528 MEMB     51       SAPC     C318     CTL3    -0.270000       12.0110           0
      5529 MEMB     51       SAPC     H18X     HAL3     0.900000E-01   1.00800           0
      5530 MEMB     51       SAPC     H18Y     HAL3     0.900000E-01   1.00800           0
      5531 MEMB     51       SAPC     H18Z     HAL3     0.900000E-01   1.00800           0
      5532 MEMB     52       POPC     N        NTL     -0.600000       14.0070           0
      5533 MEMB     52       POPC     C12      CTL2    -0.100000       12.0110           0
      5534 MEMB     52       POPC     H12A     HL       0.250000       1.00800           0
      5535 MEMB     52       POPC     H12B     HL       0.250000       1.00800           0
      5536 MEMB     52       POPC     C13      CTL5    -0.350000       12.0110           0
      5537 MEMB     52       POPC     H13A     HL       0.250000       1.00800           0
      5538 MEMB     52       POPC     H13B     HL       0.250000       1.00800           0
      5539 MEMB     52       POPC     H13C     HL       0.250000       1.00800           0
      5540 MEMB     52       POPC     C14      CTL5    -0.350000       12.0110           0
      5541 MEMB     52       POPC     H14A     HL       0.250000       1.00800           0
      5542 MEMB     52       POPC     H14B     HL       0.250000       1.00800           0
      5543 MEMB     52       POPC     H14C     HL       0.250000       1.00800           0
      5544 MEMB     52       POPC     C15      CTL5    -0.350000       12.0110           0
      5545 MEMB     52       POPC     H15A     HL       0.250000       1.00800           0
      5546 MEMB     52       POPC     H15B     HL       0.250000       1.00800           0
      5547 MEMB     52       POPC     H15C     HL       0.250000       1.00800           0
      5548 MEMB     52       POPC     C11      CTL2    -0.800000E-01   12.0110           0
      5549 MEMB     52       POPC     H11A     HAL2     0.900000E-01   1.00800           0
      5550 MEMB     52       POPC     H11B     HAL2     0.900000E-01   1.00800           0
      5551 MEMB     52       POPC     P        PL        1.50000       30.9740           0
      5552 MEMB     52       POPC     O13      O2L     -0.780000       15.9994           0
      5553 MEMB     52       POPC     O14      O2L     -0.780000       15.9994           0
      5554 MEMB     52       POPC     O12      OSLP    -0.570000       15.9994           0
      5555 MEMB     52       POPC     O11      OSLP    -0.570000       15.9994           0
      5556 MEMB     52       POPC     C1       CTL2    -0.800000E-01   12.0110           0
      5557 MEMB     52       POPC     HA       HAL2     0.900000E-01   1.00800           0
      5558 MEMB     52       POPC     HB       HAL2     0.900000E-01   1.00800           0
      5559 MEMB     52       POPC     C2       CTL1     0.170000       12.0110           0
      5560 MEMB     52       POPC     HS       HAL1     0.900000E-01   1.00800           0
      5561 MEMB     52       POPC     O21      OSL     -0.490000       15.9994           0
      5562 MEMB     52       POPC     C21      CL       0.900000       12.0110           0
      5563 MEMB     52       POPC     O22      OBL     -0.630000       15.9994           0
      5564 MEMB     52       POPC     C22      CTL2    -0.220000       12.0110           0
      5565 MEMB     52       POPC     H2R      HAL2     0.900000E-01   1.00800           0
      5566 MEMB     52       POPC     H2S      HAL2     0.900000E-01   1.00800           0
      5567 MEMB     52       POPC     C3       CTL2     0.800000E-01   12.0110           0
      5568 MEMB     52       POPC     HX       HAL2     0.900000E-01   1.00800           0
      5569 MEMB     52       POPC     HY       HAL2     0.900000E-01   1.00800           0
      5570 MEMB     52       POPC     O31      OSL     -0.490000       15.9994           0
      5571 MEMB     52       POPC     C31      CL       0.900000       12.0110           0
      5572 MEMB     52       POPC     O32      OBL     -0.630000       15.9994           0
      5573 MEMB     52       POPC     C32      CTL2    -0.220000       12.0110           0
      5574 MEMB     52       POPC     H2X      HAL2     0.900000E-01   1.00800           0
      5575 MEMB     52       POPC     H2Y      HAL2     0.900000E-01   1.00800           0
      5576 MEMB     52       POPC     C23      CTL2    -0.180000       12.0110           0
      5577 MEMB     52       POPC     H3R      HAL2     0.900000E-01   1.00800           0
      5578 MEMB     52       POPC     H3S      HAL2     0.900000E-01   1.00800           0
      5579 MEMB     52       POPC     C24      CTL2    -0.180000       12.0110           0
      5580 MEMB     52       POPC     H4R      HAL2     0.900000E-01   1.00800           0
      5581 MEMB     52       POPC     H4S      HAL2     0.900000E-01   1.00800           0
      5582 MEMB     52       POPC     C25      CTL2    -0.180000       12.0110           0
      5583 MEMB     52       POPC     H5R      HAL2     0.900000E-01   1.00800           0
      5584 MEMB     52       POPC     H5S      HAL2     0.900000E-01   1.00800           0
      5585 MEMB     52       POPC     C26      CTL2    -0.180000       12.0110           0
      5586 MEMB     52       POPC     H6R      HAL2     0.900000E-01   1.00800           0
      5587 MEMB     52       POPC     H6S      HAL2     0.900000E-01   1.00800           0
      5588 MEMB     52       POPC     C27      CTL2    -0.180000       12.0110           0
      5589 MEMB     52       POPC     H7R      HAL2     0.900000E-01   1.00800           0
      5590 MEMB     52       POPC     H7S      HAL2     0.900000E-01   1.00800           0
      5591 MEMB     52       POPC     C28      CTL2    -0.180000       12.0110           0
      5592 MEMB     52       POPC     H8R      HAL2     0.900000E-01   1.00800           0
      5593 MEMB     52       POPC     H8S      HAL2     0.900000E-01   1.00800           0
      5594 MEMB     52       POPC     C29      CEL1    -0.150000       12.0110           0
      5595 MEMB     52       POPC     H91      HEL1     0.150000       1.00800           0
      5596 MEMB     52       POPC     C210     CEL1    -0.150000       12.0110           0
      5597 MEMB     52       POPC     H101     HEL1     0.150000       1.00800           0
      5598 MEMB     52       POPC     C211     CTL2    -0.180000       12.0110           0
      5599 MEMB     52       POPC     H11R     HAL2     0.900000E-01   1.00800           0
      5600 MEMB     52       POPC     H11S     HAL2     0.900000E-01   1.00800           0
      5601 MEMB     52       POPC     C212     CTL2    -0.180000       12.0110           0
      5602 MEMB     52       POPC     H12R     HAL2     0.900000E-01   1.00800           0
      5603 MEMB     52       POPC     H12S     HAL2     0.900000E-01   1.00800           0
      5604 MEMB     52       POPC     C213     CTL2    -0.180000       12.0110           0
      5605 MEMB     52       POPC     H13R     HAL2     0.900000E-01   1.00800           0
      5606 MEMB     52       POPC     H13S     HAL2     0.900000E-01   1.00800           0
      5607 MEMB     52       POPC     C214     CTL2    -0.180000       12.0110           0
      5608 MEMB     52       POPC     H14R     HAL2     0.900000E-01   1.00800           0
      5609 MEMB     52       POPC     H14S     HAL2     0.900000E-01   1.00800           0
      5610 MEMB     52       POPC     C215     CTL2    -0.180000       12.0110           0
      5611 MEMB     52       POPC     H15R     HAL2     0.900000E-01   1.00800           0
      5612 MEMB     52       POPC     H15S     HAL2     0.900000E-01   1.00800           0
      5613 MEMB     52       POPC     C216     CTL2    -0.180000       12.0110           0
      5614 MEMB     52       POPC     H16R     HAL2     0.900000E-01   1.00800           0
      5615 MEMB     52       POPC     H16S     HAL2     0.900000E-01   1.00800           0
      5616 MEMB     52       POPC     C217     CTL2    -0.180000       12.0110           0
      5617 MEMB     52       POPC     H17R     HAL2     0.900000E-01   1.00800           0
      5618 MEMB     52       POPC     H17S     HAL2     0.900000E-01   1.00800           0
      5619 MEMB     52       POPC     C218     CTL3    -0.270000       12.0110           0
      5620 MEMB     52       POPC     H18R     HAL3     0.900000E-01   1.00800           0
      5621 MEMB     52       POPC     H18S     HAL3     0.900000E-01   1.00800           0
      5622 MEMB     52       POPC     H18T     HAL3     0.900000E-01   1.00800           0
      5623 MEMB     52       POPC     C33      CTL2    -0.180000       12.0110           0
      5624 MEMB     52       POPC     H3X      HAL2     0.900000E-01   1.00800           0
      5625 MEMB     52       POPC     H3Y      HAL2     0.900000E-01   1.00800           0
      5626 MEMB     52       POPC     C34      CTL2    -0.180000       12.0110           0
      5627 MEMB     52       POPC     H4X      HAL2     0.900000E-01   1.00800           0
      5628 MEMB     52       POPC     H4Y      HAL2     0.900000E-01   1.00800           0
      5629 MEMB     52       POPC     C35      CTL2    -0.180000       12.0110           0
      5630 MEMB     52       POPC     H5X      HAL2     0.900000E-01   1.00800           0
      5631 MEMB     52       POPC     H5Y      HAL2     0.900000E-01   1.00800           0
      5632 MEMB     52       POPC     C36      CTL2    -0.180000       12.0110           0
      5633 MEMB     52       POPC     H6X      HAL2     0.900000E-01   1.00800           0
      5634 MEMB     52       POPC     H6Y      HAL2     0.900000E-01   1.00800           0
      5635 MEMB     52       POPC     C37      CTL2    -0.180000       12.0110           0
      5636 MEMB     52       POPC     H7X      HAL2     0.900000E-01   1.00800           0
      5637 MEMB     52       POPC     H7Y      HAL2     0.900000E-01   1.00800           0
      5638 MEMB     52       POPC     C38      CTL2    -0.180000       12.0110           0
      5639 MEMB     52       POPC     H8X      HAL2     0.900000E-01   1.00800           0
      5640 MEMB     52       POPC     H8Y      HAL2     0.900000E-01   1.00800           0
      5641 MEMB     52       POPC     C39      CTL2    -0.180000       12.0110           0
      5642 MEMB     52       POPC     H9X      HAL2     0.900000E-01   1.00800           0
      5643 MEMB     52       POPC     H9Y      HAL2     0.900000E-01   1.00800           0
      5644 MEMB     52       POPC     C310     CTL2    -0.180000       12.0110           0
      5645 MEMB     52       POPC     H10X     HAL2     0.900000E-01   1.00800           0
      5646 MEMB     52       POPC     H10Y     HAL2     0.900000E-01   1.00800           0
      5647 MEMB     52       POPC     C311     CTL2    -0.180000       12.0110           0
      5648 MEMB     52       POPC     H11X     HAL2     0.900000E-01   1.00800           0
      5649 MEMB     52       POPC     H11Y     HAL2     0.900000E-01   1.00800           0
      5650 MEMB     52       POPC     C312     CTL2    -0.180000       12.0110           0
      5651 MEMB     52       POPC     H12X     HAL2     0.900000E-01   1.00800           0
      5652 MEMB     52       POPC     H12Y     HAL2     0.900000E-01   1.00800           0
      5653 MEMB     52       POPC     C313     CTL2    -0.180000       12.0110           0
      5654 MEMB     52       POPC     H13X     HAL2     0.900000E-01   1.00800           0
      5655 MEMB     52       POPC     H13Y     HAL2     0.900000E-01   1.00800           0
      5656 MEMB     52       POPC     C314     CTL2    -0.180000       12.0110           0
      5657 MEMB     52       POPC     H14X     HAL2     0.900000E-01   1.00800           0
      5658 MEMB     52       POPC     H14Y     HAL2     0.900000E-01   1.00800           0
      5659 MEMB     52       POPC     C315     CTL2    -0.180000       12.0110           0
      5660 MEMB     52       POPC     H15X     HAL2     0.900000E-01   1.00800           0
      5661 MEMB     52       POPC     H15Y     HAL2     0.900000E-01   1.00800           0
      5662 MEMB     52       POPC     C316     CTL3    -0.270000       12.0110           0
      5663 MEMB     52       POPC     H16X     HAL3     0.900000E-01   1.00800           0
      5664 MEMB     52       POPC     H16Y     HAL3     0.900000E-01   1.00800           0
      5665 MEMB     52       POPC     H16Z     HAL3     0.900000E-01   1.00800           0
      5666 MEMB     53       CHL1     C3       CRL1     0.140000       12.0110           0
      5667 MEMB     53       CHL1     H3       HGA1     0.900000E-01   1.00800           0
      5668 MEMB     53       CHL1     O3       OHL     -0.660000       15.9994           0
      5669 MEMB     53       CHL1     H3'      HOL      0.430000       1.00800           0
      5670 MEMB     53       CHL1     C4       CRL2    -0.180000       12.0110           0
      5671 MEMB     53       CHL1     H4A      HGA2     0.900000E-01   1.00800           0
      5672 MEMB     53       CHL1     H4B      HGA2     0.900000E-01   1.00800           0
      5673 MEMB     53       CHL1     C5       CEL1      0.00000       12.0110           0
      5674 MEMB     53       CHL1     C6       CEL1    -0.150000       12.0110           0
      5675 MEMB     53       CHL1     H6       HEL1     0.150000       1.00800           0
      5676 MEMB     53       CHL1     C7       CRL2    -0.180000       12.0110           0
      5677 MEMB     53       CHL1     H7A      HGA2     0.900000E-01   1.00800           0
      5678 MEMB     53       CHL1     H7B      HGA2     0.900000E-01   1.00800           0
      5679 MEMB     53       CHL1     C8       CRL1    -0.900000E-01   12.0110           0
      5680 MEMB     53       CHL1     H8       HGA1     0.900000E-01   1.00800           0
      5681 MEMB     53       CHL1     C14      CRL1    -0.900000E-01   12.0110           0
      5682 MEMB     53       CHL1     H14      HGA1     0.900000E-01   1.00800           0
      5683 MEMB     53       CHL1     C15      CRL2    -0.180000       12.0110           0
      5684 MEMB     53       CHL1     H15A     HGA2     0.900000E-01   1.00800           0
      5685 MEMB     53       CHL1     H15B     HGA2     0.900000E-01   1.00800           0
      5686 MEMB     53       CHL1     C16      CRL2    -0.180000       12.0110           0
      5687 MEMB     53       CHL1     H16A     HGA2     0.900000E-01   1.00800           0
      5688 MEMB     53       CHL1     H16B     HGA2     0.900000E-01   1.00800           0
      5689 MEMB     53       CHL1     C17      CRL1    -0.900000E-01   12.0110           0
      5690 MEMB     53       CHL1     H17      HGA1     0.900000E-01   1.00800           0
      5691 MEMB     53       CHL1     C13      CRL1      0.00000       12.0110           0
      5692 MEMB     53       CHL1     C18      CTL3    -0.270000       12.0110           0
      5693 MEMB     53       CHL1     H18A     HAL3     0.900000E-01   1.00800           0
      5694 MEMB     53       CHL1     H18B     HAL3     0.900000E-01   1.00800           0
      5695 MEMB     53       CHL1     H18C     HAL3     0.900000E-01   1.00800           0
      5696 MEMB     53       CHL1     C12      CRL2    -0.180000       12.0110           0
      5697 MEMB     53       CHL1     H12A     HGA2     0.900000E-01   1.00800           0
      5698 MEMB     53       CHL1     H12B     HGA2     0.900000E-01   1.00800           0
      5699 MEMB     53       CHL1     C11      CRL2    -0.180000       12.0110           0
      5700 MEMB     53       CHL1     H11A     HGA2     0.900000E-01   1.00800           0
      5701 MEMB     53       CHL1     H11B     HGA2     0.900000E-01   1.00800           0
      5702 MEMB     53       CHL1     C9       CRL1    -0.900000E-01   12.0110           0
      5703 MEMB     53       CHL1     H9       HGA1     0.900000E-01   1.00800           0
      5704 MEMB     53       CHL1     C10      CRL1      0.00000       12.0110           0
      5705 MEMB     53       CHL1     C19      CTL3    -0.270000       12.0110           0
      5706 MEMB     53       CHL1     H19A     HAL3     0.900000E-01   1.00800           0
      5707 MEMB     53       CHL1     H19B     HAL3     0.900000E-01   1.00800           0
      5708 MEMB     53       CHL1     H19C     HAL3     0.900000E-01   1.00800           0
      5709 MEMB     53       CHL1     C1       CRL2    -0.180000       12.0110           0
      5710 MEMB     53       CHL1     H1A      HGA2     0.900000E-01   1.00800           0
      5711 MEMB     53       CHL1     H1B      HGA2     0.900000E-01   1.00800           0
      5712 MEMB     53       CHL1     C2       CRL2    -0.180000       12.0110           0
      5713 MEMB     53       CHL1     H2A      HGA2     0.900000E-01   1.00800           0
      5714 MEMB     53       CHL1     H2B      HGA2     0.900000E-01   1.00800           0
      5715 MEMB     53       CHL1     C20      CTL1    -0.900000E-01   12.0110           0
      5716 MEMB     53       CHL1     H20      HAL1     0.900000E-01   1.00800           0
      5717 MEMB     53       CHL1     C21      CTL3    -0.270000       12.0110           0
      5718 MEMB     53       CHL1     H21A     HAL3     0.900000E-01   1.00800           0
      5719 MEMB     53       CHL1     H21B     HAL3     0.900000E-01   1.00800           0
      5720 MEMB     53       CHL1     H21C     HAL3     0.900000E-01   1.00800           0
      5721 MEMB     53       CHL1     C22      CTL2    -0.180000       12.0110           0
      5722 MEMB     53       CHL1     H22A     HAL2     0.900000E-01   1.00800           0
      5723 MEMB     53       CHL1     H22B     HAL2     0.900000E-01   1.00800           0
      5724 MEMB     53       CHL1     C23      CTL2    -0.180000       12.0110           0
      5725 MEMB     53       CHL1     H23A     HAL2     0.900000E-01   1.00800           0
      5726 MEMB     53       CHL1     H23B     HAL2     0.900000E-01   1.00800           0
      5727 MEMB     53       CHL1     C24      CTL2    -0.180000       12.0110           0
      5728 MEMB     53       CHL1     H24A     HAL2     0.900000E-01   1.00800           0
      5729 MEMB     53       CHL1     H24B     HAL2     0.900000E-01   1.00800           0
      5730 MEMB     53       CHL1     C25      CTL1    -0.900000E-01   12.0110           0
      5731 MEMB     53       CHL1     H25      HAL1     0.900000E-01   1.00800           0
      5732 MEMB     53       CHL1     C26      CTL3    -0.270000       12.0110           0
      5733 MEMB     53       CHL1     H26A     HAL3     0.900000E-01   1.00800           0
      5734 MEMB     53       CHL1     H26B     HAL3     0.900000E-01   1.00800           0
      5735 MEMB     53       CHL1     H26C     HAL3     0.900000E-01   1.00800           0
      5736 MEMB     53       CHL1     C27      CTL3    -0.270000       12.0110           0
      5737 MEMB     53       CHL1     H27A     HAL3     0.900000E-01   1.00800           0
      5738 MEMB     53       CHL1     H27B     HAL3     0.900000E-01   1.00800           0
      5739 MEMB     53       CHL1     H27C     HAL3     0.900000E-01   1.00800           0
      5740 MEMB     54       CHL1     C3       CRL1     0.140000       12.0110           0
      5741 MEMB     54       CHL1     H3       HGA1     0.900000E-01   1.00800           0
      5742 MEMB     54       CHL1     O3       OHL     -0.660000       15.9994           0
      5743 MEMB     54       CHL1     H3'      HOL      0.430000       1.00800           0
      5744 MEMB     54       CHL1     C4       CRL2    -0.180000       12.0110           0
      5745 MEMB     54       CHL1     H4A      HGA2     0.900000E-01   1.00800           0
      5746 MEMB     54       CHL1     H4B      HGA2     0.900000E-01   1.00800           0
      5747 MEMB     54       CHL1     C5       CEL1      0.00000       12.0110           0
      5748 MEMB     54       CHL1     C6       CEL1    -0.150000       12.0110           0
      5749 MEMB     54       CHL1     H6       HEL1     0.150000       1.00800           0
      5750 MEMB     54       CHL1     C7       CRL2    -0.180000       12.0110           0
      5751 MEMB     54       CHL1     H7A      HGA2     0.900000E-01   1.00800           0
      5752 MEMB     54       CHL1     H7B      HGA2     0.900000E-01   1.00800           0
      5753 MEMB     54       CHL1     C8       CRL1    -0.900000E-01   12.0110           0
      5754 MEMB     54       CHL1     H8       HGA1     0.900000E-01   1.00800           0
      5755 MEMB     54       CHL1     C14      CRL1    -0.900000E-01   12.0110           0
      5756 MEMB     54       CHL1     H14      HGA1     0.900000E-01   1.00800           0
      5757 MEMB     54       CHL1     C15      CRL2    -0.180000       12.0110           0
      5758 MEMB     54       CHL1     H15A     HGA2     0.900000E-01   1.00800           0
      5759 MEMB     54       CHL1     H15B     HGA2     0.900000E-01   1.00800           0
      5760 MEMB     54       CHL1     C16      CRL2    -0.180000       12.0110           0
      5761 MEMB     54       CHL1     H16A     HGA2     0.900000E-01   1.00800           0
      5762 MEMB     54       CHL1     H16B     HGA2     0.900000E-01   1.00800           0
      5763 MEMB     54       CHL1     C17      CRL1    -0.900000E-01   12.0110           0
      5764 MEMB     54       CHL1     H17      HGA1     0.900000E-01   1.00800           0
      5765 MEMB     54       CHL1     C13      CRL1      0.00000       12.0110           0
      5766 MEMB     54       CHL1     C18      CTL3    -0.270000       12.0110           0
      5767 MEMB     54       CHL1     H18A     HAL3     0.900000E-01   1.00800           0
      5768 MEMB     54       CHL1     H18B     HAL3     0.900000E-01   1.00800           0
      5769 MEMB     54       CHL1     H18C     HAL3     0.900000E-01   1.00800           0
      5770 MEMB     54       CHL1     C12      CRL2    -0.180000       12.0110           0
      5771 MEMB     54       CHL1     H12A     HGA2     0.900000E-01   1.00800           0
      5772 MEMB     54       CHL1     H12B     HGA2     0.900000E-01   1.00800           0
      5773 MEMB     54       CHL1     C11      CRL2    -0.180000       12.0110           0
      5774 MEMB     54       CHL1     H11A     HGA2     0.900000E-01   1.00800           0
      5775 MEMB     54       CHL1     H11B     HGA2     0.900000E-01   1.00800           0
      5776 MEMB     54       CHL1     C9       CRL1    -0.900000E-01   12.0110           0
      5777 MEMB     54       CHL1     H9       HGA1     0.900000E-01   1.00800           0
      5778 MEMB     54       CHL1     C10      CRL1      0.00000       12.0110           0
      5779 MEMB     54       CHL1     C19      CTL3    -0.270000       12.0110           0
      5780 MEMB     54       CHL1     H19A     HAL3     0.900000E-01   1.00800           0
      5781 MEMB     54       CHL1     H19B     HAL3     0.900000E-01   1.00800           0
      5782 MEMB     54       CHL1     H19C     HAL3     0.900000E-01   1.00800           0
      5783 MEMB     54       CHL1     C1       CRL2    -0.180000       12.0110           0
      5784 MEMB     54       CHL1     H1A      HGA2     0.900000E-01   1.00800           0
      5785 MEMB     54       CHL1     H1B      HGA2     0.900000E-01   1.00800           0
      5786 MEMB     54       CHL1     C2       CRL2    -0.180000       12.0110           0
      5787 MEMB     54       CHL1     H2A      HGA2     0.900000E-01   1.00800           0
      5788 MEMB     54       CHL1     H2B      HGA2     0.900000E-01   1.00800           0
      5789 MEMB     54       CHL1     C20      CTL1    -0.900000E-01   12.0110           0
      5790 MEMB     54       CHL1     H20      HAL1     0.900000E-01   1.00800           0
      5791 MEMB     54       CHL1     C21      CTL3    -0.270000       12.0110           0
      5792 MEMB     54       CHL1     H21A     HAL3     0.900000E-01   1.00800           0
      5793 MEMB     54       CHL1     H21B     HAL3     0.900000E-01   1.00800           0
      5794 MEMB     54       CHL1     H21C     HAL3     0.900000E-01   1.00800           0
      5795 MEMB     54       CHL1     C22      CTL2    -0.180000       12.0110           0
      5796 MEMB     54       CHL1     H22A     HAL2     0.900000E-01   1.00800           0
      5797 MEMB     54       CHL1     H22B     HAL2     0.900000E-01   1.00800           0
      5798 MEMB     54       CHL1     C23      CTL2    -0.180000       12.0110           0
      5799 MEMB     54       CHL1     H23A     HAL2     0.900000E-01   1.00800           0
      5800 MEMB     54       CHL1     H23B     HAL2     0.900000E-01   1.00800           0
      5801 MEMB     54       CHL1     C24      CTL2    -0.180000       12.0110           0
      5802 MEMB     54       CHL1     H24A     HAL2     0.900000E-01   1.00800           0
      5803 MEMB     54       CHL1     H24B     HAL2     0.900000E-01   1.00800           0
      5804 MEMB     54       CHL1     C25      CTL1    -0.900000E-01   12.0110           0
      5805 MEMB     54       CHL1     H25      HAL1     0.900000E-01   1.00800           0
      5806 MEMB     54       CHL1     C26      CTL3    -0.270000       12.0110           0
      5807 MEMB     54       CHL1     H26A     HAL3     0.900000E-01   1.00800           0
      5808 MEMB     54       CHL1     H26B     HAL3     0.900000E-01   1.00800           0
      5809 MEMB     54       CHL1     H26C     HAL3     0.900000E-01   1.00800           0
      5810 MEMB     54       CHL1     C27      CTL3    -0.270000       12.0110           0
      5811 MEMB     54       CHL1     H27A     HAL3     0.900000E-01   1.00800           0
      5812 MEMB     54       CHL1     H27B     HAL3     0.900000E-01   1.00800           0
      5813 MEMB     54       CHL1     H27C     HAL3     0.900000E-01   1.00800           0
      5814 MEMB     55       OSM      N        NTL     -0.600000       14.0070           0
      5815 MEMB     55       OSM      C15      CTL5    -0.350000       12.0110           0
      5816 MEMB     55       OSM      H15A     HL       0.250000       1.00800           0
      5817 MEMB     55       OSM      H15B     HL       0.250000       1.00800           0
      5818 MEMB     55       OSM      H15C     HL       0.250000       1.00800           0
      5819 MEMB     55       OSM      C14      CTL5    -0.350000       12.0110           0
      5820 MEMB     55       OSM      H14A     HL       0.250000       1.00800           0
      5821 MEMB     55       OSM      H14B     HL       0.250000       1.00800           0
      5822 MEMB     55       OSM      H14C     HL       0.250000       1.00800           0
      5823 MEMB     55       OSM      C13      CTL5    -0.350000       12.0110           0
      5824 MEMB     55       OSM      H13A     HL       0.250000       1.00800           0
      5825 MEMB     55       OSM      H13B     HL       0.250000       1.00800           0
      5826 MEMB     55       OSM      H13C     HL       0.250000       1.00800           0
      5827 MEMB     55       OSM      C12      CTL2    -0.100000       12.0110           0
      5828 MEMB     55       OSM      H12A     HL       0.250000       1.00800           0
      5829 MEMB     55       OSM      H12B     HL       0.250000       1.00800           0
      5830 MEMB     55       OSM      C11      CTL2    -0.800000E-01   12.0110           0
      5831 MEMB     55       OSM      H11A     HAL2     0.900000E-01   1.00800           0
      5832 MEMB     55       OSM      H11B     HAL2     0.900000E-01   1.00800           0
      5833 MEMB     55       OSM      P        PL        1.50000       30.9740           0
      5834 MEMB     55       OSM      O13      O2L     -0.780000       15.9994           0
      5835 MEMB     55       OSM      O14      O2L     -0.780000       15.9994           0
      5836 MEMB     55       OSM      O11      OSLP    -0.570000       15.9994           0
      5837 MEMB     55       OSM      O12      OSLP    -0.570000       15.9994           0
      5838 MEMB     55       OSM      C1S      CTL2    -0.800000E-01   12.0110           0
      5839 MEMB     55       OSM      H1S      HAL2     0.900000E-01   1.00800           0
      5840 MEMB     55       OSM      H1T      HAL2     0.900000E-01   1.00800           0
      5841 MEMB     55       OSM      NF       NHL     -0.700000       14.0070           0
      5842 MEMB     55       OSM      HNF      H        0.350000       1.00800           0
      5843 MEMB     55       OSM      C2S      CTL1     0.300000       12.0110           0
      5844 MEMB     55       OSM      H2S      HAL1     0.500000E-01   1.00800           0
      5845 MEMB     55       OSM      C3S      CTO1     0.500000       12.0110           0
      5846 MEMB     55       OSM      H3S      HAL1    -0.110000       1.00800           0
      5847 MEMB     55       OSM      O3       OHL     -0.690000       15.9994           0
      5848 MEMB     55       OSM      HO3      HOL      0.300000       1.00800           0
      5849 MEMB     55       OSM      C4S      CEL3    -0.150000       12.0110           0
      5850 MEMB     55       OSM      H4S      HEL1     0.150000       1.00800           0
      5851 MEMB     55       OSM      C5S      CEL3    -0.150000       12.0110           0
      5852 MEMB     55       OSM      H5S      HEL1     0.150000       1.00800           0
      5853 MEMB     55       OSM      C6S      CTL2    -0.180000       12.0110           0
      5854 MEMB     55       OSM      H6S      HAL2     0.900000E-01   1.00800           0
      5855 MEMB     55       OSM      H6T      HAL2     0.900000E-01   1.00800           0
      5856 MEMB     55       OSM      C7S      CTL2    -0.180000       12.0110           0
      5857 MEMB     55       OSM      H7S      HAL2     0.900000E-01   1.00800           0
      5858 MEMB     55       OSM      H7T      HAL2     0.900000E-01   1.00800           0
      5859 MEMB     55       OSM      C8S      CTL2    -0.180000       12.0110           0
      5860 MEMB     55       OSM      H8S      HAL2     0.900000E-01   1.00800           0
      5861 MEMB     55       OSM      H8T      HAL2     0.900000E-01   1.00800           0
      5862 MEMB     55       OSM      C9S      CTL2    -0.180000       12.0110           0
      5863 MEMB     55       OSM      H9S      HAL2     0.900000E-01   1.00800           0
      5864 MEMB     55       OSM      H9T      HAL2     0.900000E-01   1.00800           0
      5865 MEMB     55       OSM      C10S     CTL2    -0.180000       12.0110           0
      5866 MEMB     55       OSM      H10S     HAL2     0.900000E-01   1.00800           0
      5867 MEMB     55       OSM      H10T     HAL2     0.900000E-01   1.00800           0
      5868 MEMB     55       OSM      C11S     CTL2    -0.180000       12.0110           0
      5869 MEMB     55       OSM      H11S     HAL2     0.900000E-01   1.00800           0
      5870 MEMB     55       OSM      H11T     HAL2     0.900000E-01   1.00800           0
      5871 MEMB     55       OSM      C12S     CTL2    -0.180000       12.0110           0
      5872 MEMB     55       OSM      H12S     HAL2     0.900000E-01   1.00800           0
      5873 MEMB     55       OSM      H12T     HAL2     0.900000E-01   1.00800           0
      5874 MEMB     55       OSM      C13S     CTL2    -0.180000       12.0110           0
      5875 MEMB     55       OSM      H13S     HAL2     0.900000E-01   1.00800           0
      5876 MEMB     55       OSM      H13T     HAL2     0.900000E-01   1.00800           0
      5877 MEMB     55       OSM      C14S     CTL2    -0.180000       12.0110           0
      5878 MEMB     55       OSM      H14S     HAL2     0.900000E-01   1.00800           0
      5879 MEMB     55       OSM      H14T     HAL2     0.900000E-01   1.00800           0
      5880 MEMB     55       OSM      C15S     CTL2    -0.180000       12.0110           0
      5881 MEMB     55       OSM      H15S     HAL2     0.900000E-01   1.00800           0
      5882 MEMB     55       OSM      H15T     HAL2     0.900000E-01   1.00800           0
      5883 MEMB     55       OSM      C16S     CTL2    -0.180000       12.0110           0
      5884 MEMB     55       OSM      H16S     HAL2     0.900000E-01   1.00800           0
      5885 MEMB     55       OSM      H16T     HAL2     0.900000E-01   1.00800           0
      5886 MEMB     55       OSM      C17S     CTL2    -0.180000       12.0110           0
      5887 MEMB     55       OSM      H17S     HAL2     0.900000E-01   1.00800           0
      5888 MEMB     55       OSM      H17T     HAL2     0.900000E-01   1.00800           0
      5889 MEMB     55       OSM      C18S     CTL3    -0.270000       12.0110           0
      5890 MEMB     55       OSM      H18S     HAL3     0.900000E-01   1.00800           0
      5891 MEMB     55       OSM      H18T     HAL3     0.900000E-01   1.00800           0
      5892 MEMB     55       OSM      H18U     HAL3     0.900000E-01   1.00800           0
      5893 MEMB     55       OSM      C1F      C        0.550000       12.0110           0
      5894 MEMB     55       OSM      OF       O       -0.600000       15.9994           0
      5895 MEMB     55       OSM      C2F      CTL2    -0.700000E-01   12.0110           0
      5896 MEMB     55       OSM      H2F      HAL2     0.600000E-01   1.00800           0
      5897 MEMB     55       OSM      H2G      HAL2     0.600000E-01   1.00800           0
      5898 MEMB     55       OSM      C3F      CTL2    -0.180000       12.0110           0
      5899 MEMB     55       OSM      H3F      HAL2     0.900000E-01   1.00800           0
      5900 MEMB     55       OSM      H3G      HAL2     0.900000E-01   1.00800           0
      5901 MEMB     55       OSM      C4F      CTL2    -0.180000       12.0110           0
      5902 MEMB     55       OSM      H4F      HAL2     0.900000E-01   1.00800           0
      5903 MEMB     55       OSM      H4G      HAL2     0.900000E-01   1.00800           0
      5904 MEMB     55       OSM      C5F      CTL2    -0.180000       12.0110           0
      5905 MEMB     55       OSM      H5F      HAL2     0.900000E-01   1.00800           0
      5906 MEMB     55       OSM      H5G      HAL2     0.900000E-01   1.00800           0
      5907 MEMB     55       OSM      C6F      CTL2    -0.180000       12.0110           0
      5908 MEMB     55       OSM      H6F      HAL2     0.900000E-01   1.00800           0
      5909 MEMB     55       OSM      H6G      HAL2     0.900000E-01   1.00800           0
      5910 MEMB     55       OSM      C7F      CTL2    -0.180000       12.0110           0
      5911 MEMB     55       OSM      H7F      HAL2     0.900000E-01   1.00800           0
      5912 MEMB     55       OSM      H7G      HAL2     0.900000E-01   1.00800           0
      5913 MEMB     55       OSM      C8F      CTL2    -0.180000       12.0110           0
      5914 MEMB     55       OSM      H8F      HAL2     0.900000E-01   1.00800           0
      5915 MEMB     55       OSM      H8G      HAL2     0.900000E-01   1.00800           0
      5916 MEMB     55       OSM      C9F      CEL1    -0.150000       12.0110           0
      5917 MEMB     55       OSM      H9F      HEL1     0.150000       1.00800           0
      5918 MEMB     55       OSM      C10F     CEL1    -0.150000       12.0110           0
      5919 MEMB     55       OSM      H10F     HEL1     0.150000       1.00800           0
      5920 MEMB     55       OSM      C11F     CTL2    -0.180000       12.0110           0
      5921 MEMB     55       OSM      H11F     HAL2     0.900000E-01   1.00800           0
      5922 MEMB     55       OSM      H11G     HAL2     0.900000E-01   1.00800           0
      5923 MEMB     55       OSM      C12F     CTL2    -0.180000       12.0110           0
      5924 MEMB     55       OSM      H12F     HAL2     0.900000E-01   1.00800           0
      5925 MEMB     55       OSM      H12G     HAL2     0.900000E-01   1.00800           0
      5926 MEMB     55       OSM      C13F     CTL2    -0.180000       12.0110           0
      5927 MEMB     55       OSM      H13F     HAL2     0.900000E-01   1.00800           0
      5928 MEMB     55       OSM      H13G     HAL2     0.900000E-01   1.00800           0
      5929 MEMB     55       OSM      C14F     CTL2    -0.180000       12.0110           0
      5930 MEMB     55       OSM      H14F     HAL2     0.900000E-01   1.00800           0
      5931 MEMB     55       OSM      H14G     HAL2     0.900000E-01   1.00800           0
      5932 MEMB     55       OSM      C15F     CTL2    -0.180000       12.0110           0
      5933 MEMB     55       OSM      H15F     HAL2     0.900000E-01   1.00800           0
      5934 MEMB     55       OSM      H15G     HAL2     0.900000E-01   1.00800           0
      5935 MEMB     55       OSM      C16F     CTL2    -0.180000       12.0110           0
      5936 MEMB     55       OSM      H16F     HAL2     0.900000E-01   1.00800           0
      5937 MEMB     55       OSM      H16G     HAL2     0.900000E-01   1.00800           0
      5938 MEMB     55       OSM      C17F     CTL2    -0.180000       12.0110           0
      5939 MEMB     55       OSM      H17F     HAL2     0.900000E-01   1.00800           0
      5940 MEMB     55       OSM      H17G     HAL2     0.900000E-01   1.00800           0
      5941 MEMB     55       OSM      C18F     CTL3    -0.270000       12.0110           0
      5942 MEMB     55       OSM      H18F     HAL3     0.900000E-01   1.00800           0
      5943 MEMB     55       OSM      H18G     HAL3     0.900000E-01   1.00800           0
      5944 MEMB     55       OSM      H18H     HAL3     0.900000E-01   1.00800           0
      5945 MEMB     56       SAPC     N        NTL     -0.600000       14.0070           0
      5946 MEMB     56       SAPC     C12      CTL2    -0.100000       12.0110           0
      5947 MEMB     56       SAPC     H12A     HL       0.250000       1.00800           0
      5948 MEMB     56       SAPC     H12B     HL       0.250000       1.00800           0
      5949 MEMB     56       SAPC     C13      CTL5    -0.350000       12.0110           0
      5950 MEMB     56       SAPC     H13A     HL       0.250000       1.00800           0
      5951 MEMB     56       SAPC     H13B     HL       0.250000       1.00800           0
      5952 MEMB     56       SAPC     H13C     HL       0.250000       1.00800           0
      5953 MEMB     56       SAPC     C14      CTL5    -0.350000       12.0110           0
      5954 MEMB     56       SAPC     H14A     HL       0.250000       1.00800           0
      5955 MEMB     56       SAPC     H14B     HL       0.250000       1.00800           0
      5956 MEMB     56       SAPC     H14C     HL       0.250000       1.00800           0
      5957 MEMB     56       SAPC     C15      CTL5    -0.350000       12.0110           0
      5958 MEMB     56       SAPC     H15A     HL       0.250000       1.00800           0
      5959 MEMB     56       SAPC     H15B     HL       0.250000       1.00800           0
      5960 MEMB     56       SAPC     H15C     HL       0.250000       1.00800           0
      5961 MEMB     56       SAPC     C11      CTL2    -0.800000E-01   12.0110           0
      5962 MEMB     56       SAPC     H11A     HAL2     0.900000E-01   1.00800           0
      5963 MEMB     56       SAPC     H11B     HAL2     0.900000E-01   1.00800           0
      5964 MEMB     56       SAPC     P        PL        1.50000       30.9740           0
      5965 MEMB     56       SAPC     O13      O2L     -0.780000       15.9994           0
      5966 MEMB     56       SAPC     O14      O2L     -0.780000       15.9994           0
      5967 MEMB     56       SAPC     O12      OSLP    -0.570000       15.9994           0
      5968 MEMB     56       SAPC     O11      OSLP    -0.570000       15.9994           0
      5969 MEMB     56       SAPC     C1       CTL2    -0.800000E-01   12.0110           0
      5970 MEMB     56       SAPC     HA       HAL2     0.900000E-01   1.00800           0
      5971 MEMB     56       SAPC     HB       HAL2     0.900000E-01   1.00800           0
      5972 MEMB     56       SAPC     C2       CTL1     0.170000       12.0110           0
      5973 MEMB     56       SAPC     HS       HAL1     0.900000E-01   1.00800           0
      5974 MEMB     56       SAPC     O21      OSL     -0.490000       15.9994           0
      5975 MEMB     56       SAPC     C21      CL       0.900000       12.0110           0
      5976 MEMB     56       SAPC     O22      OBL     -0.630000       15.9994           0
      5977 MEMB     56       SAPC     C22      CTL2    -0.220000       12.0110           0
      5978 MEMB     56       SAPC     H2R      HAL2     0.900000E-01   1.00800           0
      5979 MEMB     56       SAPC     H2S      HAL2     0.900000E-01   1.00800           0
      5980 MEMB     56       SAPC     C3       CTL2     0.800000E-01   12.0110           0
      5981 MEMB     56       SAPC     HX       HAL2     0.900000E-01   1.00800           0
      5982 MEMB     56       SAPC     HY       HAL2     0.900000E-01   1.00800           0
      5983 MEMB     56       SAPC     O31      OSL     -0.490000       15.9994           0
      5984 MEMB     56       SAPC     C31      CL       0.900000       12.0110           0
      5985 MEMB     56       SAPC     O32      OBL     -0.630000       15.9994           0
      5986 MEMB     56       SAPC     C32      CTL2    -0.220000       12.0110           0
      5987 MEMB     56       SAPC     H2X      HAL2     0.900000E-01   1.00800           0
      5988 MEMB     56       SAPC     H2Y      HAL2     0.900000E-01   1.00800           0
      5989 MEMB     56       SAPC     C23      CTL2    -0.180000       12.0110           0
      5990 MEMB     56       SAPC     H3R      HAL2     0.900000E-01   1.00800           0
      5991 MEMB     56       SAPC     H3S      HAL2     0.900000E-01   1.00800           0
      5992 MEMB     56       SAPC     C24      CTL2    -0.180000       12.0110           0
      5993 MEMB     56       SAPC     H4R      HAL2     0.900000E-01   1.00800           0
      5994 MEMB     56       SAPC     H4S      HAL2     0.900000E-01   1.00800           0
      5995 MEMB     56       SAPC     C25      CEL1    -0.150000       12.0110           0
      5996 MEMB     56       SAPC     H5R      HEL1     0.150000       1.00800           0
      5997 MEMB     56       SAPC     C26      CEL1    -0.150000       12.0110           0
      5998 MEMB     56       SAPC     H6R      HEL1     0.150000       1.00800           0
      5999 MEMB     56       SAPC     C27      CTL2    -0.180000       12.0110           0
      6000 MEMB     56       SAPC     H7R      HAL2     0.900000E-01   1.00800           0
      6001 MEMB     56       SAPC     H7S      HAL2     0.900000E-01   1.00800           0
      6002 MEMB     56       SAPC     C28      CEL1    -0.150000       12.0110           0
      6003 MEMB     56       SAPC     H8R      HEL1     0.150000       1.00800           0
      6004 MEMB     56       SAPC     C29      CEL1    -0.150000       12.0110           0
      6005 MEMB     56       SAPC     H9R      HEL1     0.150000       1.00800           0
      6006 MEMB     56       SAPC     C210     CTL2    -0.180000       12.0110           0
      6007 MEMB     56       SAPC     H10R     HAL2     0.900000E-01   1.00800           0
      6008 MEMB     56       SAPC     H10S     HAL2     0.900000E-01   1.00800           0
      6009 MEMB     56       SAPC     C211     CEL1    -0.150000       12.0110           0
      6010 MEMB     56       SAPC     H11R     HEL1     0.150000       1.00800           0
      6011 MEMB     56       SAPC     C212     CEL1    -0.150000       12.0110           0
      6012 MEMB     56       SAPC     H12R     HEL1     0.150000       1.00800           0
      6013 MEMB     56       SAPC     C213     CTL2    -0.180000       12.0110           0
      6014 MEMB     56       SAPC     H13R     HAL2     0.900000E-01   1.00800           0
      6015 MEMB     56       SAPC     H13S     HAL2     0.900000E-01   1.00800           0
      6016 MEMB     56       SAPC     C214     CEL1    -0.150000       12.0110           0
      6017 MEMB     56       SAPC     H14R     HEL1     0.150000       1.00800           0
      6018 MEMB     56       SAPC     C215     CEL1    -0.150000       12.0110           0
      6019 MEMB     56       SAPC     H15R     HEL1     0.150000       1.00800           0
      6020 MEMB     56       SAPC     C216     CTL2    -0.180000       12.0110           0
      6021 MEMB     56       SAPC     H16R     HAL2     0.900000E-01   1.00800           0
      6022 MEMB     56       SAPC     H16S     HAL2     0.900000E-01   1.00800           0
      6023 MEMB     56       SAPC     C217     CTL2    -0.180000       12.0110           0
      6024 MEMB     56       SAPC     H17R     HAL2     0.900000E-01   1.00800           0
      6025 MEMB     56       SAPC     H17S     HAL2     0.900000E-01   1.00800           0
      6026 MEMB     56       SAPC     C218     CTL2    -0.270000       12.0110           0
      6027 MEMB     56       SAPC     H18R     HAL2     0.900000E-01   1.00800           0
      6028 MEMB     56       SAPC     H18S     HAL2     0.900000E-01   1.00800           0
      6029 MEMB     56       SAPC     C219     CTL2    -0.180000       12.0110           0
      6030 MEMB     56       SAPC     H19R     HAL2     0.900000E-01   1.00800           0
      6031 MEMB     56       SAPC     H19S     HAL2     0.900000E-01   1.00800           0
      6032 MEMB     56       SAPC     C220     CTL3    -0.180000       12.0110           0
      6033 MEMB     56       SAPC     H20R     HAL3     0.900000E-01   1.00800           0
      6034 MEMB     56       SAPC     H20S     HAL3     0.900000E-01   1.00800           0
      6035 MEMB     56       SAPC     H20T     HAL3     0.900000E-01   1.00800           0
      6036 MEMB     56       SAPC     C33      CTL2    -0.180000       12.0110           0
      6037 MEMB     56       SAPC     H3X      HAL2     0.900000E-01   1.00800           0
      6038 MEMB     56       SAPC     H3Y      HAL2     0.900000E-01   1.00800           0
      6039 MEMB     56       SAPC     C34      CTL2    -0.180000       12.0110           0
      6040 MEMB     56       SAPC     H4X      HAL2     0.900000E-01   1.00800           0
      6041 MEMB     56       SAPC     H4Y      HAL2     0.900000E-01   1.00800           0
      6042 MEMB     56       SAPC     C35      CTL2    -0.180000       12.0110           0
      6043 MEMB     56       SAPC     H5X      HAL2     0.900000E-01   1.00800           0
      6044 MEMB     56       SAPC     H5Y      HAL2     0.900000E-01   1.00800           0
      6045 MEMB     56       SAPC     C36      CTL2    -0.180000       12.0110           0
      6046 MEMB     56       SAPC     H6X      HAL2     0.900000E-01   1.00800           0
      6047 MEMB     56       SAPC     H6Y      HAL2     0.900000E-01   1.00800           0
      6048 MEMB     56       SAPC     C37      CTL2    -0.180000       12.0110           0
      6049 MEMB     56       SAPC     H7X      HAL2     0.900000E-01   1.00800           0
      6050 MEMB     56       SAPC     H7Y      HAL2     0.900000E-01   1.00800           0
      6051 MEMB     56       SAPC     C38      CTL2    -0.180000       12.0110           0
      6052 MEMB     56       SAPC     H8X      HAL2     0.900000E-01   1.00800           0
      6053 MEMB     56       SAPC     H8Y      HAL2     0.900000E-01   1.00800           0
      6054 MEMB     56       SAPC     C39      CTL2    -0.180000       12.0110           0
      6055 MEMB     56       SAPC     H9X      HAL2     0.900000E-01   1.00800           0
      6056 MEMB     56       SAPC     H9Y      HAL2     0.900000E-01   1.00800           0
      6057 MEMB     56       SAPC     C310     CTL2    -0.180000       12.0110           0
      6058 MEMB     56       SAPC     H10X     HAL2     0.900000E-01   1.00800           0
      6059 MEMB     56       SAPC     H10Y     HAL2     0.900000E-01   1.00800           0
      6060 MEMB     56       SAPC     C311     CTL2    -0.180000       12.0110           0
      6061 MEMB     56       SAPC     H11X     HAL2     0.900000E-01   1.00800           0
      6062 MEMB     56       SAPC     H11Y     HAL2     0.900000E-01   1.00800           0
      6063 MEMB     56       SAPC     C312     CTL2    -0.180000       12.0110           0
      6064 MEMB     56       SAPC     H12X     HAL2     0.900000E-01   1.00800           0
      6065 MEMB     56       SAPC     H12Y     HAL2     0.900000E-01   1.00800           0
      6066 MEMB     56       SAPC     C313     CTL2    -0.180000       12.0110           0
      6067 MEMB     56       SAPC     H13X     HAL2     0.900000E-01   1.00800           0
      6068 MEMB     56       SAPC     H13Y     HAL2     0.900000E-01   1.00800           0
      6069 MEMB     56       SAPC     C314     CTL2    -0.180000       12.0110           0
      6070 MEMB     56       SAPC     H14X     HAL2     0.900000E-01   1.00800           0
      6071 MEMB     56       SAPC     H14Y     HAL2     0.900000E-01   1.00800           0
      6072 MEMB     56       SAPC     C315     CTL2    -0.180000       12.0110           0
      6073 MEMB     56       SAPC     H15X     HAL2     0.900000E-01   1.00800           0
      6074 MEMB     56       SAPC     H15Y     HAL2     0.900000E-01   1.00800           0
      6075 MEMB     56       SAPC     C316     CTL2    -0.180000       12.0110           0
      6076 MEMB     56       SAPC     H16X     HAL2     0.900000E-01   1.00800           0
      6077 MEMB     56       SAPC     H16Y     HAL2     0.900000E-01   1.00800           0
      6078 MEMB     56       SAPC     C317     CTL2    -0.180000       12.0110           0
      6079 MEMB     56       SAPC     H17X     HAL2     0.900000E-01   1.00800           0
      6080 MEMB     56       SAPC     H17Y     HAL2     0.900000E-01   1.00800           0
      6081 MEMB     56       SAPC     C318     CTL3    -0.270000       12.0110           0
      6082 MEMB     56       SAPC     H18X     HAL3     0.900000E-01   1.00800           0
      6083 MEMB     56       SAPC     H18Y     HAL3     0.900000E-01   1.00800           0
      6084 MEMB     56       SAPC     H18Z     HAL3     0.900000E-01   1.00800           0
      6085 MEMB     57       OSM      N        NTL     -0.600000       14.0070           0
      6086 MEMB     57       OSM      C15      CTL5    -0.350000       12.0110           0
      6087 MEMB     57       OSM      H15A     HL       0.250000       1.00800           0
      6088 MEMB     57       OSM      H15B     HL       0.250000       1.00800           0
      6089 MEMB     57       OSM      H15C     HL       0.250000       1.00800           0
      6090 MEMB     57       OSM      C14      CTL5    -0.350000       12.0110           0
      6091 MEMB     57       OSM      H14A     HL       0.250000       1.00800           0
      6092 MEMB     57       OSM      H14B     HL       0.250000       1.00800           0
      6093 MEMB     57       OSM      H14C     HL       0.250000       1.00800           0
      6094 MEMB     57       OSM      C13      CTL5    -0.350000       12.0110           0
      6095 MEMB     57       OSM      H13A     HL       0.250000       1.00800           0
      6096 MEMB     57       OSM      H13B     HL       0.250000       1.00800           0
      6097 MEMB     57       OSM      H13C     HL       0.250000       1.00800           0
      6098 MEMB     57       OSM      C12      CTL2    -0.100000       12.0110           0
      6099 MEMB     57       OSM      H12A     HL       0.250000       1.00800           0
      6100 MEMB     57       OSM      H12B     HL       0.250000       1.00800           0
      6101 MEMB     57       OSM      C11      CTL2    -0.800000E-01   12.0110           0
      6102 MEMB     57       OSM      H11A     HAL2     0.900000E-01   1.00800           0
      6103 MEMB     57       OSM      H11B     HAL2     0.900000E-01   1.00800           0
      6104 MEMB     57       OSM      P        PL        1.50000       30.9740           0
      6105 MEMB     57       OSM      O13      O2L     -0.780000       15.9994           0
      6106 MEMB     57       OSM      O14      O2L     -0.780000       15.9994           0
      6107 MEMB     57       OSM      O11      OSLP    -0.570000       15.9994           0
      6108 MEMB     57       OSM      O12      OSLP    -0.570000       15.9994           0
      6109 MEMB     57       OSM      C1S      CTL2    -0.800000E-01   12.0110           0
      6110 MEMB     57       OSM      H1S      HAL2     0.900000E-01   1.00800           0
      6111 MEMB     57       OSM      H1T      HAL2     0.900000E-01   1.00800           0
      6112 MEMB     57       OSM      NF       NHL     -0.700000       14.0070           0
      6113 MEMB     57       OSM      HNF      H        0.350000       1.00800           0
      6114 MEMB     57       OSM      C2S      CTL1     0.300000       12.0110           0
      6115 MEMB     57       OSM      H2S      HAL1     0.500000E-01   1.00800           0
      6116 MEMB     57       OSM      C3S      CTO1     0.500000       12.0110           0
      6117 MEMB     57       OSM      H3S      HAL1    -0.110000       1.00800           0
      6118 MEMB     57       OSM      O3       OHL     -0.690000       15.9994           0
      6119 MEMB     57       OSM      HO3      HOL      0.300000       1.00800           0
      6120 MEMB     57       OSM      C4S      CEL3    -0.150000       12.0110           0
      6121 MEMB     57       OSM      H4S      HEL1     0.150000       1.00800           0
      6122 MEMB     57       OSM      C5S      CEL3    -0.150000       12.0110           0
      6123 MEMB     57       OSM      H5S      HEL1     0.150000       1.00800           0
      6124 MEMB     57       OSM      C6S      CTL2    -0.180000       12.0110           0
      6125 MEMB     57       OSM      H6S      HAL2     0.900000E-01   1.00800           0
      6126 MEMB     57       OSM      H6T      HAL2     0.900000E-01   1.00800           0
      6127 MEMB     57       OSM      C7S      CTL2    -0.180000       12.0110           0
      6128 MEMB     57       OSM      H7S      HAL2     0.900000E-01   1.00800           0
      6129 MEMB     57       OSM      H7T      HAL2     0.900000E-01   1.00800           0
      6130 MEMB     57       OSM      C8S      CTL2    -0.180000       12.0110           0
      6131 MEMB     57       OSM      H8S      HAL2     0.900000E-01   1.00800           0
      6132 MEMB     57       OSM      H8T      HAL2     0.900000E-01   1.00800           0
      6133 MEMB     57       OSM      C9S      CTL2    -0.180000       12.0110           0
      6134 MEMB     57       OSM      H9S      HAL2     0.900000E-01   1.00800           0
      6135 MEMB     57       OSM      H9T      HAL2     0.900000E-01   1.00800           0
      6136 MEMB     57       OSM      C10S     CTL2    -0.180000       12.0110           0
      6137 MEMB     57       OSM      H10S     HAL2     0.900000E-01   1.00800           0
      6138 MEMB     57       OSM      H10T     HAL2     0.900000E-01   1.00800           0
      6139 MEMB     57       OSM      C11S     CTL2    -0.180000       12.0110           0
      6140 MEMB     57       OSM      H11S     HAL2     0.900000E-01   1.00800           0
      6141 MEMB     57       OSM      H11T     HAL2     0.900000E-01   1.00800           0
      6142 MEMB     57       OSM      C12S     CTL2    -0.180000       12.0110           0
      6143 MEMB     57       OSM      H12S     HAL2     0.900000E-01   1.00800           0
      6144 MEMB     57       OSM      H12T     HAL2     0.900000E-01   1.00800           0
      6145 MEMB     57       OSM      C13S     CTL2    -0.180000       12.0110           0
      6146 MEMB     57       OSM      H13S     HAL2     0.900000E-01   1.00800           0
      6147 MEMB     57       OSM      H13T     HAL2     0.900000E-01   1.00800           0
      6148 MEMB     57       OSM      C14S     CTL2    -0.180000       12.0110           0
      6149 MEMB     57       OSM      H14S     HAL2     0.900000E-01   1.00800           0
      6150 MEMB     57       OSM      H14T     HAL2     0.900000E-01   1.00800           0
      6151 MEMB     57       OSM      C15S     CTL2    -0.180000       12.0110           0
      6152 MEMB     57       OSM      H15S     HAL2     0.900000E-01   1.00800           0
      6153 MEMB     57       OSM      H15T     HAL2     0.900000E-01   1.00800           0
      6154 MEMB     57       OSM      C16S     CTL2    -0.180000       12.0110           0
      6155 MEMB     57       OSM      H16S     HAL2     0.900000E-01   1.00800           0
      6156 MEMB     57       OSM      H16T     HAL2     0.900000E-01   1.00800           0
      6157 MEMB     57       OSM      C17S     CTL2    -0.180000       12.0110           0
      6158 MEMB     57       OSM      H17S     HAL2     0.900000E-01   1.00800           0
      6159 MEMB     57       OSM      H17T     HAL2     0.900000E-01   1.00800           0
      6160 MEMB     57       OSM      C18S     CTL3    -0.270000       12.0110           0
      6161 MEMB     57       OSM      H18S     HAL3     0.900000E-01   1.00800           0
      6162 MEMB     57       OSM      H18T     HAL3     0.900000E-01   1.00800           0
      6163 MEMB     57       OSM      H18U     HAL3     0.900000E-01   1.00800           0
      6164 MEMB     57       OSM      C1F      C        0.550000       12.0110           0
      6165 MEMB     57       OSM      OF       O       -0.600000       15.9994           0
      6166 MEMB     57       OSM      C2F      CTL2    -0.700000E-01   12.0110           0
      6167 MEMB     57       OSM      H2F      HAL2     0.600000E-01   1.00800           0
      6168 MEMB     57       OSM      H2G      HAL2     0.600000E-01   1.00800           0
      6169 MEMB     57       OSM      C3F      CTL2    -0.180000       12.0110           0
      6170 MEMB     57       OSM      H3F      HAL2     0.900000E-01   1.00800           0
      6171 MEMB     57       OSM      H3G      HAL2     0.900000E-01   1.00800           0
      6172 MEMB     57       OSM      C4F      CTL2    -0.180000       12.0110           0
      6173 MEMB     57       OSM      H4F      HAL2     0.900000E-01   1.00800           0
      6174 MEMB     57       OSM      H4G      HAL2     0.900000E-01   1.00800           0
      6175 MEMB     57       OSM      C5F      CTL2    -0.180000       12.0110           0
      6176 MEMB     57       OSM      H5F      HAL2     0.900000E-01   1.00800           0
      6177 MEMB     57       OSM      H5G      HAL2     0.900000E-01   1.00800           0
      6178 MEMB     57       OSM      C6F      CTL2    -0.180000       12.0110           0
      6179 MEMB     57       OSM      H6F      HAL2     0.900000E-01   1.00800           0
      6180 MEMB     57       OSM      H6G      HAL2     0.900000E-01   1.00800           0
      6181 MEMB     57       OSM      C7F      CTL2    -0.180000       12.0110           0
      6182 MEMB     57       OSM      H7F      HAL2     0.900000E-01   1.00800           0
      6183 MEMB     57       OSM      H7G      HAL2     0.900000E-01   1.00800           0
      6184 MEMB     57       OSM      C8F      CTL2    -0.180000       12.0110           0
      6185 MEMB     57       OSM      H8F      HAL2     0.900000E-01   1.00800           0
      6186 MEMB     57       OSM      H8G      HAL2     0.900000E-01   1.00800           0
      6187 MEMB     57       OSM      C9F      CEL1    -0.150000       12.0110           0
      6188 MEMB     57       OSM      H9F      HEL1     0.150000       1.00800           0
      6189 MEMB     57       OSM      C10F     CEL1    -0.150000       12.0110           0
      6190 MEMB     57       OSM      H10F     HEL1     0.150000       1.00800           0
      6191 MEMB     57       OSM      C11F     CTL2    -0.180000       12.0110           0
      6192 MEMB     57       OSM      H11F     HAL2     0.900000E-01   1.00800           0
      6193 MEMB     57       OSM      H11G     HAL2     0.900000E-01   1.00800           0
      6194 MEMB     57       OSM      C12F     CTL2    -0.180000       12.0110           0
      6195 MEMB     57       OSM      H12F     HAL2     0.900000E-01   1.00800           0
      6196 MEMB     57       OSM      H12G     HAL2     0.900000E-01   1.00800           0
      6197 MEMB     57       OSM      C13F     CTL2    -0.180000       12.0110           0
      6198 MEMB     57       OSM      H13F     HAL2     0.900000E-01   1.00800           0
      6199 MEMB     57       OSM      H13G     HAL2     0.900000E-01   1.00800           0
      6200 MEMB     57       OSM      C14F     CTL2    -0.180000       12.0110           0
      6201 MEMB     57       OSM      H14F     HAL2     0.900000E-01   1.00800           0
      6202 MEMB     57       OSM      H14G     HAL2     0.900000E-01   1.00800           0
      6203 MEMB     57       OSM      C15F     CTL2    -0.180000       12.0110           0
      6204 MEMB     57       OSM      H15F     HAL2     0.900000E-01   1.00800           0
      6205 MEMB     57       OSM      H15G     HAL2     0.900000E-01   1.00800           0
      6206 MEMB     57       OSM      C16F     CTL2    -0.180000       12.0110           0
      6207 MEMB     57       OSM      H16F     HAL2     0.900000E-01   1.00800           0
      6208 MEMB     57       OSM      H16G     HAL2     0.900000E-01   1.00800           0
      6209 MEMB     57       OSM      C17F     CTL2    -0.180000       12.0110           0
      6210 MEMB     57       OSM      H17F     HAL2     0.900000E-01   1.00800           0
      6211 MEMB     57       OSM      H17G     HAL2     0.900000E-01   1.00800           0
      6212 MEMB     57       OSM      C18F     CTL3    -0.270000       12.0110           0
      6213 MEMB     57       OSM      H18F     HAL3     0.900000E-01   1.00800           0
      6214 MEMB     57       OSM      H18G     HAL3     0.900000E-01   1.00800           0
      6215 MEMB     57       OSM      H18H     HAL3     0.900000E-01   1.00800           0
      6216 MEMB     58       SAPE     N        NH3L    -0.300000       14.0070           0
      6217 MEMB     58       SAPE     HN1      HCL      0.330000       1.00800           0
      6218 MEMB     58       SAPE     HN2      HCL      0.330000       1.00800           0
      6219 MEMB     58       SAPE     HN3      HCL      0.330000       1.00800           0
      6220 MEMB     58       SAPE     C12      CTL2     0.130000       12.0110           0
      6221 MEMB     58       SAPE     H12A     HAL2     0.900000E-01   1.00800           0
      6222 MEMB     58       SAPE     H12B     HAL2     0.900000E-01   1.00800           0
      6223 MEMB     58       SAPE     C11      CTL2    -0.800000E-01   12.0110           0
      6224 MEMB     58       SAPE     H11A     HAL2     0.900000E-01   1.00800           0
      6225 MEMB     58       SAPE     H11B     HAL2     0.900000E-01   1.00800           0
      6226 MEMB     58       SAPE     P        PL        1.50000       30.9740           0
      6227 MEMB     58       SAPE     O13      O2L     -0.780000       15.9994           0
      6228 MEMB     58       SAPE     O14      O2L     -0.780000       15.9994           0
      6229 MEMB     58       SAPE     O12      OSLP    -0.570000       15.9994           0
      6230 MEMB     58       SAPE     O11      OSLP    -0.570000       15.9994           0
      6231 MEMB     58       SAPE     C1       CTL2    -0.800000E-01   12.0110           0
      6232 MEMB     58       SAPE     HA       HAL2     0.900000E-01   1.00800           0
      6233 MEMB     58       SAPE     HB       HAL2     0.900000E-01   1.00800           0
      6234 MEMB     58       SAPE     C2       CTL1     0.170000       12.0110           0
      6235 MEMB     58       SAPE     HS       HAL1     0.900000E-01   1.00800           0
      6236 MEMB     58       SAPE     O21      OSL     -0.490000       15.9994           0
      6237 MEMB     58       SAPE     C21      CL       0.900000       12.0110           0
      6238 MEMB     58       SAPE     O22      OBL     -0.630000       15.9994           0
      6239 MEMB     58       SAPE     C22      CTL2    -0.220000       12.0110           0
      6240 MEMB     58       SAPE     H2R      HAL2     0.900000E-01   1.00800           0
      6241 MEMB     58       SAPE     H2S      HAL2     0.900000E-01   1.00800           0
      6242 MEMB     58       SAPE     C3       CTL2     0.800000E-01   12.0110           0
      6243 MEMB     58       SAPE     HX       HAL2     0.900000E-01   1.00800           0
      6244 MEMB     58       SAPE     HY       HAL2     0.900000E-01   1.00800           0
      6245 MEMB     58       SAPE     O31      OSL     -0.490000       15.9994           0
      6246 MEMB     58       SAPE     C31      CL       0.900000       12.0110           0
      6247 MEMB     58       SAPE     O32      OBL     -0.630000       15.9994           0
      6248 MEMB     58       SAPE     C32      CTL2    -0.220000       12.0110           0
      6249 MEMB     58       SAPE     H2X      HAL2     0.900000E-01   1.00800           0
      6250 MEMB     58       SAPE     H2Y      HAL2     0.900000E-01   1.00800           0
      6251 MEMB     58       SAPE     C23      CTL2    -0.180000       12.0110           0
      6252 MEMB     58       SAPE     H3R      HAL2     0.900000E-01   1.00800           0
      6253 MEMB     58       SAPE     H3S      HAL2     0.900000E-01   1.00800           0
      6254 MEMB     58       SAPE     C24      CTL2    -0.180000       12.0110           0
      6255 MEMB     58       SAPE     H4R      HAL2     0.900000E-01   1.00800           0
      6256 MEMB     58       SAPE     H4S      HAL2     0.900000E-01   1.00800           0
      6257 MEMB     58       SAPE     C25      CEL1    -0.150000       12.0110           0
      6258 MEMB     58       SAPE     H5R      HEL1     0.150000       1.00800           0
      6259 MEMB     58       SAPE     C26      CEL1    -0.150000       12.0110           0
      6260 MEMB     58       SAPE     H6R      HEL1     0.150000       1.00800           0
      6261 MEMB     58       SAPE     C27      CTL2    -0.180000       12.0110           0
      6262 MEMB     58       SAPE     H7R      HAL2     0.900000E-01   1.00800           0
      6263 MEMB     58       SAPE     H7S      HAL2     0.900000E-01   1.00800           0
      6264 MEMB     58       SAPE     C28      CEL1    -0.150000       12.0110           0
      6265 MEMB     58       SAPE     H8R      HEL1     0.150000       1.00800           0
      6266 MEMB     58       SAPE     C29      CEL1    -0.150000       12.0110           0
      6267 MEMB     58       SAPE     H9R      HEL1     0.150000       1.00800           0
      6268 MEMB     58       SAPE     C210     CTL2    -0.180000       12.0110           0
      6269 MEMB     58       SAPE     H10R     HAL2     0.900000E-01   1.00800           0
      6270 MEMB     58       SAPE     H10S     HAL2     0.900000E-01   1.00800           0
      6271 MEMB     58       SAPE     C211     CEL1    -0.150000       12.0110           0
      6272 MEMB     58       SAPE     H11R     HEL1     0.150000       1.00800           0
      6273 MEMB     58       SAPE     C212     CEL1    -0.150000       12.0110           0
      6274 MEMB     58       SAPE     H12R     HEL1     0.150000       1.00800           0
      6275 MEMB     58       SAPE     C213     CTL2    -0.180000       12.0110           0
      6276 MEMB     58       SAPE     H13R     HAL2     0.900000E-01   1.00800           0
      6277 MEMB     58       SAPE     H13S     HAL2     0.900000E-01   1.00800           0
      6278 MEMB     58       SAPE     C214     CEL1    -0.150000       12.0110           0
      6279 MEMB     58       SAPE     H14R     HEL1     0.150000       1.00800           0
      6280 MEMB     58       SAPE     C215     CEL1    -0.150000       12.0110           0
      6281 MEMB     58       SAPE     H15R     HEL1     0.150000       1.00800           0
      6282 MEMB     58       SAPE     C216     CTL2    -0.180000       12.0110           0
      6283 MEMB     58       SAPE     H16R     HAL2     0.900000E-01   1.00800           0
      6284 MEMB     58       SAPE     H16S     HAL2     0.900000E-01   1.00800           0
      6285 MEMB     58       SAPE     C217     CTL2    -0.180000       12.0110           0
      6286 MEMB     58       SAPE     H17R     HAL2     0.900000E-01   1.00800           0
      6287 MEMB     58       SAPE     H17S     HAL2     0.900000E-01   1.00800           0
      6288 MEMB     58       SAPE     C218     CTL2    -0.180000       12.0110           0
      6289 MEMB     58       SAPE     H18R     HAL2     0.900000E-01   1.00800           0
      6290 MEMB     58       SAPE     H18S     HAL2     0.900000E-01   1.00800           0
      6291 MEMB     58       SAPE     C219     CTL2    -0.180000       12.0110           0
      6292 MEMB     58       SAPE     H19R     HAL2     0.900000E-01   1.00800           0
      6293 MEMB     58       SAPE     H19S     HAL2     0.900000E-01   1.00800           0
      6294 MEMB     58       SAPE     C220     CTL3    -0.270000       12.0110           0
      6295 MEMB     58       SAPE     H20R     HAL3     0.900000E-01   1.00800           0
      6296 MEMB     58       SAPE     H20S     HAL3     0.900000E-01   1.00800           0
      6297 MEMB     58       SAPE     H20T     HAL3     0.900000E-01   1.00800           0
      6298 MEMB     58       SAPE     C33      CTL2    -0.180000       12.0110           0
      6299 MEMB     58       SAPE     H3X      HAL2     0.900000E-01   1.00800           0
      6300 MEMB     58       SAPE     H3Y      HAL2     0.900000E-01   1.00800           0
      6301 MEMB     58       SAPE     C34      CTL2    -0.180000       12.0110           0
      6302 MEMB     58       SAPE     H4X      HAL2     0.900000E-01   1.00800           0
      6303 MEMB     58       SAPE     H4Y      HAL2     0.900000E-01   1.00800           0
      6304 MEMB     58       SAPE     C35      CTL2    -0.180000       12.0110           0
      6305 MEMB     58       SAPE     H5X      HAL2     0.900000E-01   1.00800           0
      6306 MEMB     58       SAPE     H5Y      HAL2     0.900000E-01   1.00800           0
      6307 MEMB     58       SAPE     C36      CTL2    -0.180000       12.0110           0
      6308 MEMB     58       SAPE     H6X      HAL2     0.900000E-01   1.00800           0
      6309 MEMB     58       SAPE     H6Y      HAL2     0.900000E-01   1.00800           0
      6310 MEMB     58       SAPE     C37      CTL2    -0.180000       12.0110           0
      6311 MEMB     58       SAPE     H7X      HAL2     0.900000E-01   1.00800           0
      6312 MEMB     58       SAPE     H7Y      HAL2     0.900000E-01   1.00800           0
      6313 MEMB     58       SAPE     C38      CTL2    -0.180000       12.0110           0
      6314 MEMB     58       SAPE     H8X      HAL2     0.900000E-01   1.00800           0
      6315 MEMB     58       SAPE     H8Y      HAL2     0.900000E-01   1.00800           0
      6316 MEMB     58       SAPE     C39      CTL2    -0.180000       12.0110           0
      6317 MEMB     58       SAPE     H9X      HAL2     0.900000E-01   1.00800           0
      6318 MEMB     58       SAPE     H9Y      HAL2     0.900000E-01   1.00800           0
      6319 MEMB     58       SAPE     C310     CTL2    -0.180000       12.0110           0
      6320 MEMB     58       SAPE     H10X     HAL2     0.900000E-01   1.00800           0
      6321 MEMB     58       SAPE     H10Y     HAL2     0.900000E-01   1.00800           0
      6322 MEMB     58       SAPE     C311     CTL2    -0.180000       12.0110           0
      6323 MEMB     58       SAPE     H11X     HAL2     0.900000E-01   1.00800           0
      6324 MEMB     58       SAPE     H11Y     HAL2     0.900000E-01   1.00800           0
      6325 MEMB     58       SAPE     C312     CTL2    -0.180000       12.0110           0
      6326 MEMB     58       SAPE     H12X     HAL2     0.900000E-01   1.00800           0
      6327 MEMB     58       SAPE     H12Y     HAL2     0.900000E-01   1.00800           0
      6328 MEMB     58       SAPE     C313     CTL2    -0.180000       12.0110           0
      6329 MEMB     58       SAPE     H13X     HAL2     0.900000E-01   1.00800           0
      6330 MEMB     58       SAPE     H13Y     HAL2     0.900000E-01   1.00800           0
      6331 MEMB     58       SAPE     C314     CTL2    -0.180000       12.0110           0
      6332 MEMB     58       SAPE     H14X     HAL2     0.900000E-01   1.00800           0
      6333 MEMB     58       SAPE     H14Y     HAL2     0.900000E-01   1.00800           0
      6334 MEMB     58       SAPE     C315     CTL2    -0.180000       12.0110           0
      6335 MEMB     58       SAPE     H15X     HAL2     0.900000E-01   1.00800           0
      6336 MEMB     58       SAPE     H15Y     HAL2     0.900000E-01   1.00800           0
      6337 MEMB     58       SAPE     C316     CTL2    -0.180000       12.0110           0
      6338 MEMB     58       SAPE     H16X     HAL2     0.900000E-01   1.00800           0
      6339 MEMB     58       SAPE     H16Y     HAL2     0.900000E-01   1.00800           0
      6340 MEMB     58       SAPE     C317     CTL2    -0.180000       12.0110           0
      6341 MEMB     58       SAPE     H17X     HAL2     0.900000E-01   1.00800           0
      6342 MEMB     58       SAPE     H17Y     HAL2     0.900000E-01   1.00800           0
      6343 MEMB     58       SAPE     C318     CTL3    -0.270000       12.0110           0
      6344 MEMB     58       SAPE     H18X     HAL3     0.900000E-01   1.00800           0
      6345 MEMB     58       SAPE     H18Y     HAL3     0.900000E-01   1.00800           0
      6346 MEMB     58       SAPE     H18Z     HAL3     0.900000E-01   1.00800           0
      6347 MEMB     59       OSM      N        NTL     -0.600000       14.0070           0
      6348 MEMB     59       OSM      C15      CTL5    -0.350000       12.0110           0
      6349 MEMB     59       OSM      H15A     HL       0.250000       1.00800           0
      6350 MEMB     59       OSM      H15B     HL       0.250000       1.00800           0
      6351 MEMB     59       OSM      H15C     HL       0.250000       1.00800           0
      6352 MEMB     59       OSM      C14      CTL5    -0.350000       12.0110           0
      6353 MEMB     59       OSM      H14A     HL       0.250000       1.00800           0
      6354 MEMB     59       OSM      H14B     HL       0.250000       1.00800           0
      6355 MEMB     59       OSM      H14C     HL       0.250000       1.00800           0
      6356 MEMB     59       OSM      C13      CTL5    -0.350000       12.0110           0
      6357 MEMB     59       OSM      H13A     HL       0.250000       1.00800           0
      6358 MEMB     59       OSM      H13B     HL       0.250000       1.00800           0
      6359 MEMB     59       OSM      H13C     HL       0.250000       1.00800           0
      6360 MEMB     59       OSM      C12      CTL2    -0.100000       12.0110           0
      6361 MEMB     59       OSM      H12A     HL       0.250000       1.00800           0
      6362 MEMB     59       OSM      H12B     HL       0.250000       1.00800           0
      6363 MEMB     59       OSM      C11      CTL2    -0.800000E-01   12.0110           0
      6364 MEMB     59       OSM      H11A     HAL2     0.900000E-01   1.00800           0
      6365 MEMB     59       OSM      H11B     HAL2     0.900000E-01   1.00800           0
      6366 MEMB     59       OSM      P        PL        1.50000       30.9740           0
      6367 MEMB     59       OSM      O13      O2L     -0.780000       15.9994           0
      6368 MEMB     59       OSM      O14      O2L     -0.780000       15.9994           0
      6369 MEMB     59       OSM      O11      OSLP    -0.570000       15.9994           0
      6370 MEMB     59       OSM      O12      OSLP    -0.570000       15.9994           0
      6371 MEMB     59       OSM      C1S      CTL2    -0.800000E-01   12.0110           0
      6372 MEMB     59       OSM      H1S      HAL2     0.900000E-01   1.00800           0
      6373 MEMB     59       OSM      H1T      HAL2     0.900000E-01   1.00800           0
      6374 MEMB     59       OSM      NF       NHL     -0.700000       14.0070           0
      6375 MEMB     59       OSM      HNF      H        0.350000       1.00800           0
      6376 MEMB     59       OSM      C2S      CTL1     0.300000       12.0110           0
      6377 MEMB     59       OSM      H2S      HAL1     0.500000E-01   1.00800           0
      6378 MEMB     59       OSM      C3S      CTO1     0.500000       12.0110           0
      6379 MEMB     59       OSM      H3S      HAL1    -0.110000       1.00800           0
      6380 MEMB     59       OSM      O3       OHL     -0.690000       15.9994           0
      6381 MEMB     59       OSM      HO3      HOL      0.300000       1.00800           0
      6382 MEMB     59       OSM      C4S      CEL3    -0.150000       12.0110           0
      6383 MEMB     59       OSM      H4S      HEL1     0.150000       1.00800           0
      6384 MEMB     59       OSM      C5S      CEL3    -0.150000       12.0110           0
      6385 MEMB     59       OSM      H5S      HEL1     0.150000       1.00800           0
      6386 MEMB     59       OSM      C6S      CTL2    -0.180000       12.0110           0
      6387 MEMB     59       OSM      H6S      HAL2     0.900000E-01   1.00800           0
      6388 MEMB     59       OSM      H6T      HAL2     0.900000E-01   1.00800           0
      6389 MEMB     59       OSM      C7S      CTL2    -0.180000       12.0110           0
      6390 MEMB     59       OSM      H7S      HAL2     0.900000E-01   1.00800           0
      6391 MEMB     59       OSM      H7T      HAL2     0.900000E-01   1.00800           0
      6392 MEMB     59       OSM      C8S      CTL2    -0.180000       12.0110           0
      6393 MEMB     59       OSM      H8S      HAL2     0.900000E-01   1.00800           0
      6394 MEMB     59       OSM      H8T      HAL2     0.900000E-01   1.00800           0
      6395 MEMB     59       OSM      C9S      CTL2    -0.180000       12.0110           0
      6396 MEMB     59       OSM      H9S      HAL2     0.900000E-01   1.00800           0
      6397 MEMB     59       OSM      H9T      HAL2     0.900000E-01   1.00800           0
      6398 MEMB     59       OSM      C10S     CTL2    -0.180000       12.0110           0
      6399 MEMB     59       OSM      H10S     HAL2     0.900000E-01   1.00800           0
      6400 MEMB     59       OSM      H10T     HAL2     0.900000E-01   1.00800           0
      6401 MEMB     59       OSM      C11S     CTL2    -0.180000       12.0110           0
      6402 MEMB     59       OSM      H11S     HAL2     0.900000E-01   1.00800           0
      6403 MEMB     59       OSM      H11T     HAL2     0.900000E-01   1.00800           0
      6404 MEMB     59       OSM      C12S     CTL2    -0.180000       12.0110           0
      6405 MEMB     59       OSM      H12S     HAL2     0.900000E-01   1.00800           0
      6406 MEMB     59       OSM      H12T     HAL2     0.900000E-01   1.00800           0
      6407 MEMB     59       OSM      C13S     CTL2    -0.180000       12.0110           0
      6408 MEMB     59       OSM      H13S     HAL2     0.900000E-01   1.00800           0
      6409 MEMB     59       OSM      H13T     HAL2     0.900000E-01   1.00800           0
      6410 MEMB     59       OSM      C14S     CTL2    -0.180000       12.0110           0
      6411 MEMB     59       OSM      H14S     HAL2     0.900000E-01   1.00800           0
      6412 MEMB     59       OSM      H14T     HAL2     0.900000E-01   1.00800           0
      6413 MEMB     59       OSM      C15S     CTL2    -0.180000       12.0110           0
      6414 MEMB     59       OSM      H15S     HAL2     0.900000E-01   1.00800           0
      6415 MEMB     59       OSM      H15T     HAL2     0.900000E-01   1.00800           0
      6416 MEMB     59       OSM      C16S     CTL2    -0.180000       12.0110           0
      6417 MEMB     59       OSM      H16S     HAL2     0.900000E-01   1.00800           0
      6418 MEMB     59       OSM      H16T     HAL2     0.900000E-01   1.00800           0
      6419 MEMB     59       OSM      C17S     CTL2    -0.180000       12.0110           0
      6420 MEMB     59       OSM      H17S     HAL2     0.900000E-01   1.00800           0
      6421 MEMB     59       OSM      H17T     HAL2     0.900000E-01   1.00800           0
      6422 MEMB     59       OSM      C18S     CTL3    -0.270000       12.0110           0
      6423 MEMB     59       OSM      H18S     HAL3     0.900000E-01   1.00800           0
      6424 MEMB     59       OSM      H18T     HAL3     0.900000E-01   1.00800           0
      6425 MEMB     59       OSM      H18U     HAL3     0.900000E-01   1.00800           0
      6426 MEMB     59       OSM      C1F      C        0.550000       12.0110           0
      6427 MEMB     59       OSM      OF       O       -0.600000       15.9994           0
      6428 MEMB     59       OSM      C2F      CTL2    -0.700000E-01   12.0110           0
      6429 MEMB     59       OSM      H2F      HAL2     0.600000E-01   1.00800           0
      6430 MEMB     59       OSM      H2G      HAL2     0.600000E-01   1.00800           0
      6431 MEMB     59       OSM      C3F      CTL2    -0.180000       12.0110           0
      6432 MEMB     59       OSM      H3F      HAL2     0.900000E-01   1.00800           0
      6433 MEMB     59       OSM      H3G      HAL2     0.900000E-01   1.00800           0
      6434 MEMB     59       OSM      C4F      CTL2    -0.180000       12.0110           0
      6435 MEMB     59       OSM      H4F      HAL2     0.900000E-01   1.00800           0
      6436 MEMB     59       OSM      H4G      HAL2     0.900000E-01   1.00800           0
      6437 MEMB     59       OSM      C5F      CTL2    -0.180000       12.0110           0
      6438 MEMB     59       OSM      H5F      HAL2     0.900000E-01   1.00800           0
      6439 MEMB     59       OSM      H5G      HAL2     0.900000E-01   1.00800           0
      6440 MEMB     59       OSM      C6F      CTL2    -0.180000       12.0110           0
      6441 MEMB     59       OSM      H6F      HAL2     0.900000E-01   1.00800           0
      6442 MEMB     59       OSM      H6G      HAL2     0.900000E-01   1.00800           0
      6443 MEMB     59       OSM      C7F      CTL2    -0.180000       12.0110           0
      6444 MEMB     59       OSM      H7F      HAL2     0.900000E-01   1.00800           0
      6445 MEMB     59       OSM      H7G      HAL2     0.900000E-01   1.00800           0
      6446 MEMB     59       OSM      C8F      CTL2    -0.180000       12.0110           0
      6447 MEMB     59       OSM      H8F      HAL2     0.900000E-01   1.00800           0
      6448 MEMB     59       OSM      H8G      HAL2     0.900000E-01   1.00800           0
      6449 MEMB     59       OSM      C9F      CEL1    -0.150000       12.0110           0
      6450 MEMB     59       OSM      H9F      HEL1     0.150000       1.00800           0
      6451 MEMB     59       OSM      C10F     CEL1    -0.150000       12.0110           0
      6452 MEMB     59       OSM      H10F     HEL1     0.150000       1.00800           0
      6453 MEMB     59       OSM      C11F     CTL2    -0.180000       12.0110           0
      6454 MEMB     59       OSM      H11F     HAL2     0.900000E-01   1.00800           0
      6455 MEMB     59       OSM      H11G     HAL2     0.900000E-01   1.00800           0
      6456 MEMB     59       OSM      C12F     CTL2    -0.180000       12.0110           0
      6457 MEMB     59       OSM      H12F     HAL2     0.900000E-01   1.00800           0
      6458 MEMB     59       OSM      H12G     HAL2     0.900000E-01   1.00800           0
      6459 MEMB     59       OSM      C13F     CTL2    -0.180000       12.0110           0
      6460 MEMB     59       OSM      H13F     HAL2     0.900000E-01   1.00800           0
      6461 MEMB     59       OSM      H13G     HAL2     0.900000E-01   1.00800           0
      6462 MEMB     59       OSM      C14F     CTL2    -0.180000       12.0110           0
      6463 MEMB     59       OSM      H14F     HAL2     0.900000E-01   1.00800           0
      6464 MEMB     59       OSM      H14G     HAL2     0.900000E-01   1.00800           0
      6465 MEMB     59       OSM      C15F     CTL2    -0.180000       12.0110           0
      6466 MEMB     59       OSM      H15F     HAL2     0.900000E-01   1.00800           0
      6467 MEMB     59       OSM      H15G     HAL2     0.900000E-01   1.00800           0
      6468 MEMB     59       OSM      C16F     CTL2    -0.180000       12.0110           0
      6469 MEMB     59       OSM      H16F     HAL2     0.900000E-01   1.00800           0
      6470 MEMB     59       OSM      H16G     HAL2     0.900000E-01   1.00800           0
      6471 MEMB     59       OSM      C17F     CTL2    -0.180000       12.0110           0
      6472 MEMB     59       OSM      H17F     HAL2     0.900000E-01   1.00800           0
      6473 MEMB     59       OSM      H17G     HAL2     0.900000E-01   1.00800           0
      6474 MEMB     59       OSM      C18F     CTL3    -0.270000       12.0110           0
      6475 MEMB     59       OSM      H18F     HAL3     0.900000E-01   1.00800           0
      6476 MEMB     59       OSM      H18G     HAL3     0.900000E-01   1.00800           0
      6477 MEMB     59       OSM      H18H     HAL3     0.900000E-01   1.00800           0
      6478 MEMB     60       OSM      N        NTL     -0.600000       14.0070           0
      6479 MEMB     60       OSM      C15      CTL5    -0.350000       12.0110           0
      6480 MEMB     60       OSM      H15A     HL       0.250000       1.00800           0
      6481 MEMB     60       OSM      H15B     HL       0.250000       1.00800           0
      6482 MEMB     60       OSM      H15C     HL       0.250000       1.00800           0
      6483 MEMB     60       OSM      C14      CTL5    -0.350000       12.0110           0
      6484 MEMB     60       OSM      H14A     HL       0.250000       1.00800           0
      6485 MEMB     60       OSM      H14B     HL       0.250000       1.00800           0
      6486 MEMB     60       OSM      H14C     HL       0.250000       1.00800           0
      6487 MEMB     60       OSM      C13      CTL5    -0.350000       12.0110           0
      6488 MEMB     60       OSM      H13A     HL       0.250000       1.00800           0
      6489 MEMB     60       OSM      H13B     HL       0.250000       1.00800           0
      6490 MEMB     60       OSM      H13C     HL       0.250000       1.00800           0
      6491 MEMB     60       OSM      C12      CTL2    -0.100000       12.0110           0
      6492 MEMB     60       OSM      H12A     HL       0.250000       1.00800           0
      6493 MEMB     60       OSM      H12B     HL       0.250000       1.00800           0
      6494 MEMB     60       OSM      C11      CTL2    -0.800000E-01   12.0110           0
      6495 MEMB     60       OSM      H11A     HAL2     0.900000E-01   1.00800           0
      6496 MEMB     60       OSM      H11B     HAL2     0.900000E-01   1.00800           0
      6497 MEMB     60       OSM      P        PL        1.50000       30.9740           0
      6498 MEMB     60       OSM      O13      O2L     -0.780000       15.9994           0
      6499 MEMB     60       OSM      O14      O2L     -0.780000       15.9994           0
      6500 MEMB     60       OSM      O11      OSLP    -0.570000       15.9994           0
      6501 MEMB     60       OSM      O12      OSLP    -0.570000       15.9994           0
      6502 MEMB     60       OSM      C1S      CTL2    -0.800000E-01   12.0110           0
      6503 MEMB     60       OSM      H1S      HAL2     0.900000E-01   1.00800           0
      6504 MEMB     60       OSM      H1T      HAL2     0.900000E-01   1.00800           0
      6505 MEMB     60       OSM      NF       NHL     -0.700000       14.0070           0
      6506 MEMB     60       OSM      HNF      H        0.350000       1.00800           0
      6507 MEMB     60       OSM      C2S      CTL1     0.300000       12.0110           0
      6508 MEMB     60       OSM      H2S      HAL1     0.500000E-01   1.00800           0
      6509 MEMB     60       OSM      C3S      CTO1     0.500000       12.0110           0
      6510 MEMB     60       OSM      H3S      HAL1    -0.110000       1.00800           0
      6511 MEMB     60       OSM      O3       OHL     -0.690000       15.9994           0
      6512 MEMB     60       OSM      HO3      HOL      0.300000       1.00800           0
      6513 MEMB     60       OSM      C4S      CEL3    -0.150000       12.0110           0
      6514 MEMB     60       OSM      H4S      HEL1     0.150000       1.00800           0
      6515 MEMB     60       OSM      C5S      CEL3    -0.150000       12.0110           0
      6516 MEMB     60       OSM      H5S      HEL1     0.150000       1.00800           0
      6517 MEMB     60       OSM      C6S      CTL2    -0.180000       12.0110           0
      6518 MEMB     60       OSM      H6S      HAL2     0.900000E-01   1.00800           0
      6519 MEMB     60       OSM      H6T      HAL2     0.900000E-01   1.00800           0
      6520 MEMB     60       OSM      C7S      CTL2    -0.180000       12.0110           0
      6521 MEMB     60       OSM      H7S      HAL2     0.900000E-01   1.00800           0
      6522 MEMB     60       OSM      H7T      HAL2     0.900000E-01   1.00800           0
      6523 MEMB     60       OSM      C8S      CTL2    -0.180000       12.0110           0
      6524 MEMB     60       OSM      H8S      HAL2     0.900000E-01   1.00800           0
      6525 MEMB     60       OSM      H8T      HAL2     0.900000E-01   1.00800           0
      6526 MEMB     60       OSM      C9S      CTL2    -0.180000       12.0110           0
      6527 MEMB     60       OSM      H9S      HAL2     0.900000E-01   1.00800           0
      6528 MEMB     60       OSM      H9T      HAL2     0.900000E-01   1.00800           0
      6529 MEMB     60       OSM      C10S     CTL2    -0.180000       12.0110           0
      6530 MEMB     60       OSM      H10S     HAL2     0.900000E-01   1.00800           0
      6531 MEMB     60       OSM      H10T     HAL2     0.900000E-01   1.00800           0
      6532 MEMB     60       OSM      C11S     CTL2    -0.180000       12.0110           0
      6533 MEMB     60       OSM      H11S     HAL2     0.900000E-01   1.00800           0
      6534 MEMB     60       OSM      H11T     HAL2     0.900000E-01   1.00800           0
      6535 MEMB     60       OSM      C12S     CTL2    -0.180000       12.0110           0
      6536 MEMB     60       OSM      H12S     HAL2     0.900000E-01   1.00800           0
      6537 MEMB     60       OSM      H12T     HAL2     0.900000E-01   1.00800           0
      6538 MEMB     60       OSM      C13S     CTL2    -0.180000       12.0110           0
      6539 MEMB     60       OSM      H13S     HAL2     0.900000E-01   1.00800           0
      6540 MEMB     60       OSM      H13T     HAL2     0.900000E-01   1.00800           0
      6541 MEMB     60       OSM      C14S     CTL2    -0.180000       12.0110           0
      6542 MEMB     60       OSM      H14S     HAL2     0.900000E-01   1.00800           0
      6543 MEMB     60       OSM      H14T     HAL2     0.900000E-01   1.00800           0
      6544 MEMB     60       OSM      C15S     CTL2    -0.180000       12.0110           0
      6545 MEMB     60       OSM      H15S     HAL2     0.900000E-01   1.00800           0
      6546 MEMB     60       OSM      H15T     HAL2     0.900000E-01   1.00800           0
      6547 MEMB     60       OSM      C16S     CTL2    -0.180000       12.0110           0
      6548 MEMB     60       OSM      H16S     HAL2     0.900000E-01   1.00800           0
      6549 MEMB     60       OSM      H16T     HAL2     0.900000E-01   1.00800           0
      6550 MEMB     60       OSM      C17S     CTL2    -0.180000       12.0110           0
      6551 MEMB     60       OSM      H17S     HAL2     0.900000E-01   1.00800           0
      6552 MEMB     60       OSM      H17T     HAL2     0.900000E-01   1.00800           0
      6553 MEMB     60       OSM      C18S     CTL3    -0.270000       12.0110           0
      6554 MEMB     60       OSM      H18S     HAL3     0.900000E-01   1.00800           0
      6555 MEMB     60       OSM      H18T     HAL3     0.900000E-01   1.00800           0
      6556 MEMB     60       OSM      H18U     HAL3     0.900000E-01   1.00800           0
      6557 MEMB     60       OSM      C1F      C        0.550000       12.0110           0
      6558 MEMB     60       OSM      OF       O       -0.600000       15.9994           0
      6559 MEMB     60       OSM      C2F      CTL2    -0.700000E-01   12.0110           0
      6560 MEMB     60       OSM      H2F      HAL2     0.600000E-01   1.00800           0
      6561 MEMB     60       OSM      H2G      HAL2     0.600000E-01   1.00800           0
      6562 MEMB     60       OSM      C3F      CTL2    -0.180000       12.0110           0
      6563 MEMB     60       OSM      H3F      HAL2     0.900000E-01   1.00800           0
      6564 MEMB     60       OSM      H3G      HAL2     0.900000E-01   1.00800           0
      6565 MEMB     60       OSM      C4F      CTL2    -0.180000       12.0110           0
      6566 MEMB     60       OSM      H4F      HAL2     0.900000E-01   1.00800           0
      6567 MEMB     60       OSM      H4G      HAL2     0.900000E-01   1.00800           0
      6568 MEMB     60       OSM      C5F      CTL2    -0.180000       12.0110           0
      6569 MEMB     60       OSM      H5F      HAL2     0.900000E-01   1.00800           0
      6570 MEMB     60       OSM      H5G      HAL2     0.900000E-01   1.00800           0
      6571 MEMB     60       OSM      C6F      CTL2    -0.180000       12.0110           0
      6572 MEMB     60       OSM      H6F      HAL2     0.900000E-01   1.00800           0
      6573 MEMB     60       OSM      H6G      HAL2     0.900000E-01   1.00800           0
      6574 MEMB     60       OSM      C7F      CTL2    -0.180000       12.0110           0
      6575 MEMB     60       OSM      H7F      HAL2     0.900000E-01   1.00800           0
      6576 MEMB     60       OSM      H7G      HAL2     0.900000E-01   1.00800           0
      6577 MEMB     60       OSM      C8F      CTL2    -0.180000       12.0110           0
      6578 MEMB     60       OSM      H8F      HAL2     0.900000E-01   1.00800           0
      6579 MEMB     60       OSM      H8G      HAL2     0.900000E-01   1.00800           0
      6580 MEMB     60       OSM      C9F      CEL1    -0.150000       12.0110           0
      6581 MEMB     60       OSM      H9F      HEL1     0.150000       1.00800           0
      6582 MEMB     60       OSM      C10F     CEL1    -0.150000       12.0110           0
      6583 MEMB     60       OSM      H10F     HEL1     0.150000       1.00800           0
      6584 MEMB     60       OSM      C11F     CTL2    -0.180000       12.0110           0
      6585 MEMB     60       OSM      H11F     HAL2     0.900000E-01   1.00800           0
      6586 MEMB     60       OSM      H11G     HAL2     0.900000E-01   1.00800           0
      6587 MEMB     60       OSM      C12F     CTL2    -0.180000       12.0110           0
      6588 MEMB     60       OSM      H12F     HAL2     0.900000E-01   1.00800           0
      6589 MEMB     60       OSM      H12G     HAL2     0.900000E-01   1.00800           0
      6590 MEMB     60       OSM      C13F     CTL2    -0.180000       12.0110           0
      6591 MEMB     60       OSM      H13F     HAL2     0.900000E-01   1.00800           0
      6592 MEMB     60       OSM      H13G     HAL2     0.900000E-01   1.00800           0
      6593 MEMB     60       OSM      C14F     CTL2    -0.180000       12.0110           0
      6594 MEMB     60       OSM      H14F     HAL2     0.900000E-01   1.00800           0
      6595 MEMB     60       OSM      H14G     HAL2     0.900000E-01   1.00800           0
      6596 MEMB     60       OSM      C15F     CTL2    -0.180000       12.0110           0
      6597 MEMB     60       OSM      H15F     HAL2     0.900000E-01   1.00800           0
      6598 MEMB     60       OSM      H15G     HAL2     0.900000E-01   1.00800           0
      6599 MEMB     60       OSM      C16F     CTL2    -0.180000       12.0110           0
      6600 MEMB     60       OSM      H16F     HAL2     0.900000E-01   1.00800           0
      6601 MEMB     60       OSM      H16G     HAL2     0.900000E-01   1.00800           0
      6602 MEMB     60       OSM      C17F     CTL2    -0.180000       12.0110           0
      6603 MEMB     60       OSM      H17F     HAL2     0.900000E-01   1.00800           0
      6604 MEMB     60       OSM      H17G     HAL2     0.900000E-01   1.00800           0
      6605 MEMB     60       OSM      C18F     CTL3    -0.270000       12.0110           0
      6606 MEMB     60       OSM      H18F     HAL3     0.900000E-01   1.00800           0
      6607 MEMB     60       OSM      H18G     HAL3     0.900000E-01   1.00800           0
      6608 MEMB     60       OSM      H18H     HAL3     0.900000E-01   1.00800           0
      6609 MEMB     61       SOPE     N        NH3L    -0.300000       14.0070           0
      6610 MEMB     61       SOPE     HN1      HCL      0.330000       1.00800           0
      6611 MEMB     61       SOPE     HN2      HCL      0.330000       1.00800           0
      6612 MEMB     61       SOPE     HN3      HCL      0.330000       1.00800           0
      6613 MEMB     61       SOPE     C12      CTL2     0.130000       12.0110           0
      6614 MEMB     61       SOPE     H12A     HAL2     0.900000E-01   1.00800           0
      6615 MEMB     61       SOPE     H12B     HAL2     0.900000E-01   1.00800           0
      6616 MEMB     61       SOPE     C11      CTL2    -0.800000E-01   12.0110           0
      6617 MEMB     61       SOPE     H11A     HAL2     0.900000E-01   1.00800           0
      6618 MEMB     61       SOPE     H11B     HAL2     0.900000E-01   1.00800           0
      6619 MEMB     61       SOPE     P        PL        1.50000       30.9740           0
      6620 MEMB     61       SOPE     O13      O2L     -0.780000       15.9994           0
      6621 MEMB     61       SOPE     O14      O2L     -0.780000       15.9994           0
      6622 MEMB     61       SOPE     O12      OSLP    -0.570000       15.9994           0
      6623 MEMB     61       SOPE     O11      OSLP    -0.570000       15.9994           0
      6624 MEMB     61       SOPE     C1       CTL2    -0.800000E-01   12.0110           0
      6625 MEMB     61       SOPE     HA       HAL2     0.900000E-01   1.00800           0
      6626 MEMB     61       SOPE     HB       HAL2     0.900000E-01   1.00800           0
      6627 MEMB     61       SOPE     C2       CTL1     0.170000       12.0110           0
      6628 MEMB     61       SOPE     HS       HAL1     0.900000E-01   1.00800           0
      6629 MEMB     61       SOPE     O21      OSL     -0.490000       15.9994           0
      6630 MEMB     61       SOPE     C21      CL       0.900000       12.0110           0
      6631 MEMB     61       SOPE     O22      OBL     -0.630000       15.9994           0
      6632 MEMB     61       SOPE     C22      CTL2    -0.220000       12.0110           0
      6633 MEMB     61       SOPE     H2R      HAL2     0.900000E-01   1.00800           0
      6634 MEMB     61       SOPE     H2S      HAL2     0.900000E-01   1.00800           0
      6635 MEMB     61       SOPE     C3       CTL2     0.800000E-01   12.0110           0
      6636 MEMB     61       SOPE     HX       HAL2     0.900000E-01   1.00800           0
      6637 MEMB     61       SOPE     HY       HAL2     0.900000E-01   1.00800           0
      6638 MEMB     61       SOPE     O31      OSL     -0.490000       15.9994           0
      6639 MEMB     61       SOPE     C31      CL       0.900000       12.0110           0
      6640 MEMB     61       SOPE     O32      OBL     -0.630000       15.9994           0
      6641 MEMB     61       SOPE     C32      CTL2    -0.220000       12.0110           0
      6642 MEMB     61       SOPE     H2X      HAL2     0.900000E-01   1.00800           0
      6643 MEMB     61       SOPE     H2Y      HAL2     0.900000E-01   1.00800           0
      6644 MEMB     61       SOPE     C23      CTL2    -0.180000       12.0110           0
      6645 MEMB     61       SOPE     H3R      HAL2     0.900000E-01   1.00800           0
      6646 MEMB     61       SOPE     H3S      HAL2     0.900000E-01   1.00800           0
      6647 MEMB     61       SOPE     C24      CTL2    -0.180000       12.0110           0
      6648 MEMB     61       SOPE     H4R      HAL2     0.900000E-01   1.00800           0
      6649 MEMB     61       SOPE     H4S      HAL2     0.900000E-01   1.00800           0
      6650 MEMB     61       SOPE     C25      CTL2    -0.180000       12.0110           0
      6651 MEMB     61       SOPE     H5R      HAL2     0.900000E-01   1.00800           0
      6652 MEMB     61       SOPE     H5S      HAL2     0.900000E-01   1.00800           0
      6653 MEMB     61       SOPE     C26      CTL2    -0.180000       12.0110           0
      6654 MEMB     61       SOPE     H6R      HAL2     0.900000E-01   1.00800           0
      6655 MEMB     61       SOPE     H6S      HAL2     0.900000E-01   1.00800           0
      6656 MEMB     61       SOPE     C27      CTL2    -0.180000       12.0110           0
      6657 MEMB     61       SOPE     H7R      HAL2     0.900000E-01   1.00800           0
      6658 MEMB     61       SOPE     H7S      HAL2     0.900000E-01   1.00800           0
      6659 MEMB     61       SOPE     C28      CTL2    -0.180000       12.0110           0
      6660 MEMB     61       SOPE     H8R      HAL2     0.900000E-01   1.00800           0
      6661 MEMB     61       SOPE     H8S      HAL2     0.900000E-01   1.00800           0
      6662 MEMB     61       SOPE     C29      CEL1    -0.150000       12.0110           0
      6663 MEMB     61       SOPE     H91      HEL1     0.150000       1.00800           0
      6664 MEMB     61       SOPE     C210     CEL1    -0.150000       12.0110           0
      6665 MEMB     61       SOPE     H101     HEL1     0.150000       1.00800           0
      6666 MEMB     61       SOPE     C211     CTL2    -0.180000       12.0110           0
      6667 MEMB     61       SOPE     H11R     HAL2     0.900000E-01   1.00800           0
      6668 MEMB     61       SOPE     H11S     HAL2     0.900000E-01   1.00800           0
      6669 MEMB     61       SOPE     C212     CTL2    -0.180000       12.0110           0
      6670 MEMB     61       SOPE     H12R     HAL2     0.900000E-01   1.00800           0
      6671 MEMB     61       SOPE     H12S     HAL2     0.900000E-01   1.00800           0
      6672 MEMB     61       SOPE     C213     CTL2    -0.180000       12.0110           0
      6673 MEMB     61       SOPE     H13R     HAL2     0.900000E-01   1.00800           0
      6674 MEMB     61       SOPE     H13S     HAL2     0.900000E-01   1.00800           0
      6675 MEMB     61       SOPE     C214     CTL2    -0.180000       12.0110           0
      6676 MEMB     61       SOPE     H14R     HAL2     0.900000E-01   1.00800           0
      6677 MEMB     61       SOPE     H14S     HAL2     0.900000E-01   1.00800           0
      6678 MEMB     61       SOPE     C215     CTL2    -0.180000       12.0110           0
      6679 MEMB     61       SOPE     H15R     HAL2     0.900000E-01   1.00800           0
      6680 MEMB     61       SOPE     H15S     HAL2     0.900000E-01   1.00800           0
      6681 MEMB     61       SOPE     C216     CTL2    -0.180000       12.0110           0
      6682 MEMB     61       SOPE     H16R     HAL2     0.900000E-01   1.00800           0
      6683 MEMB     61       SOPE     H16S     HAL2     0.900000E-01   1.00800           0
      6684 MEMB     61       SOPE     C217     CTL2    -0.180000       12.0110           0
      6685 MEMB     61       SOPE     H17R     HAL2     0.900000E-01   1.00800           0
      6686 MEMB     61       SOPE     H17S     HAL2     0.900000E-01   1.00800           0
      6687 MEMB     61       SOPE     C218     CTL3    -0.270000       12.0110           0
      6688 MEMB     61       SOPE     H18R     HAL3     0.900000E-01   1.00800           0
      6689 MEMB     61       SOPE     H18S     HAL3     0.900000E-01   1.00800           0
      6690 MEMB     61       SOPE     H18T     HAL3     0.900000E-01   1.00800           0
      6691 MEMB     61       SOPE     C33      CTL2    -0.180000       12.0110           0
      6692 MEMB     61       SOPE     H3X      HAL2     0.900000E-01   1.00800           0
      6693 MEMB     61       SOPE     H3Y      HAL2     0.900000E-01   1.00800           0
      6694 MEMB     61       SOPE     C34      CTL2    -0.180000       12.0110           0
      6695 MEMB     61       SOPE     H4X      HAL2     0.900000E-01   1.00800           0
      6696 MEMB     61       SOPE     H4Y      HAL2     0.900000E-01   1.00800           0
      6697 MEMB     61       SOPE     C35      CTL2    -0.180000       12.0110           0
      6698 MEMB     61       SOPE     H5X      HAL2     0.900000E-01   1.00800           0
      6699 MEMB     61       SOPE     H5Y      HAL2     0.900000E-01   1.00800           0
      6700 MEMB     61       SOPE     C36      CTL2    -0.180000       12.0110           0
      6701 MEMB     61       SOPE     H6X      HAL2     0.900000E-01   1.00800           0
      6702 MEMB     61       SOPE     H6Y      HAL2     0.900000E-01   1.00800           0
      6703 MEMB     61       SOPE     C37      CTL2    -0.180000       12.0110           0
      6704 MEMB     61       SOPE     H7X      HAL2     0.900000E-01   1.00800           0
      6705 MEMB     61       SOPE     H7Y      HAL2     0.900000E-01   1.00800           0
      6706 MEMB     61       SOPE     C38      CTL2    -0.180000       12.0110           0
      6707 MEMB     61       SOPE     H8X      HAL2     0.900000E-01   1.00800           0
      6708 MEMB     61       SOPE     H8Y      HAL2     0.900000E-01   1.00800           0
      6709 MEMB     61       SOPE     C39      CTL2    -0.180000       12.0110           0
      6710 MEMB     61       SOPE     H9X      HAL2     0.900000E-01   1.00800           0
      6711 MEMB     61       SOPE     H9Y      HAL2     0.900000E-01   1.00800           0
      6712 MEMB     61       SOPE     C310     CTL2    -0.180000       12.0110           0
      6713 MEMB     61       SOPE     H10X     HAL2     0.900000E-01   1.00800           0
      6714 MEMB     61       SOPE     H10Y     HAL2     0.900000E-01   1.00800           0
      6715 MEMB     61       SOPE     C311     CTL2    -0.180000       12.0110           0
      6716 MEMB     61       SOPE     H11X     HAL2     0.900000E-01   1.00800           0
      6717 MEMB     61       SOPE     H11Y     HAL2     0.900000E-01   1.00800           0
      6718 MEMB     61       SOPE     C312     CTL2    -0.180000       12.0110           0
      6719 MEMB     61       SOPE     H12X     HAL2     0.900000E-01   1.00800           0
      6720 MEMB     61       SOPE     H12Y     HAL2     0.900000E-01   1.00800           0
      6721 MEMB     61       SOPE     C313     CTL2    -0.180000       12.0110           0
      6722 MEMB     61       SOPE     H13X     HAL2     0.900000E-01   1.00800           0
      6723 MEMB     61       SOPE     H13Y     HAL2     0.900000E-01   1.00800           0
      6724 MEMB     61       SOPE     C314     CTL2    -0.180000       12.0110           0
      6725 MEMB     61       SOPE     H14X     HAL2     0.900000E-01   1.00800           0
      6726 MEMB     61       SOPE     H14Y     HAL2     0.900000E-01   1.00800           0
      6727 MEMB     61       SOPE     C315     CTL2    -0.180000       12.0110           0
      6728 MEMB     61       SOPE     H15X     HAL2     0.900000E-01   1.00800           0
      6729 MEMB     61       SOPE     H15Y     HAL2     0.900000E-01   1.00800           0
      6730 MEMB     61       SOPE     C316     CTL2    -0.180000       12.0110           0
      6731 MEMB     61       SOPE     H16X     HAL2     0.900000E-01   1.00800           0
      6732 MEMB     61       SOPE     H16Y     HAL2     0.900000E-01   1.00800           0
      6733 MEMB     61       SOPE     C317     CTL2    -0.180000       12.0110           0
      6734 MEMB     61       SOPE     H17X     HAL2     0.900000E-01   1.00800           0
      6735 MEMB     61       SOPE     H17Y     HAL2     0.900000E-01   1.00800           0
      6736 MEMB     61       SOPE     C318     CTL3    -0.270000       12.0110           0
      6737 MEMB     61       SOPE     H18X     HAL3     0.900000E-01   1.00800           0
      6738 MEMB     61       SOPE     H18Y     HAL3     0.900000E-01   1.00800           0
      6739 MEMB     61       SOPE     H18Z     HAL3     0.900000E-01   1.00800           0
      6740 MEMB     62       SOPE     N        NH3L    -0.300000       14.0070           0
      6741 MEMB     62       SOPE     HN1      HCL      0.330000       1.00800           0
      6742 MEMB     62       SOPE     HN2      HCL      0.330000       1.00800           0
      6743 MEMB     62       SOPE     HN3      HCL      0.330000       1.00800           0
      6744 MEMB     62       SOPE     C12      CTL2     0.130000       12.0110           0
      6745 MEMB     62       SOPE     H12A     HAL2     0.900000E-01   1.00800           0
      6746 MEMB     62       SOPE     H12B     HAL2     0.900000E-01   1.00800           0
      6747 MEMB     62       SOPE     C11      CTL2    -0.800000E-01   12.0110           0
      6748 MEMB     62       SOPE     H11A     HAL2     0.900000E-01   1.00800           0
      6749 MEMB     62       SOPE     H11B     HAL2     0.900000E-01   1.00800           0
      6750 MEMB     62       SOPE     P        PL        1.50000       30.9740           0
      6751 MEMB     62       SOPE     O13      O2L     -0.780000       15.9994           0
      6752 MEMB     62       SOPE     O14      O2L     -0.780000       15.9994           0
      6753 MEMB     62       SOPE     O12      OSLP    -0.570000       15.9994           0
      6754 MEMB     62       SOPE     O11      OSLP    -0.570000       15.9994           0
      6755 MEMB     62       SOPE     C1       CTL2    -0.800000E-01   12.0110           0
      6756 MEMB     62       SOPE     HA       HAL2     0.900000E-01   1.00800           0
      6757 MEMB     62       SOPE     HB       HAL2     0.900000E-01   1.00800           0
      6758 MEMB     62       SOPE     C2       CTL1     0.170000       12.0110           0
      6759 MEMB     62       SOPE     HS       HAL1     0.900000E-01   1.00800           0
      6760 MEMB     62       SOPE     O21      OSL     -0.490000       15.9994           0
      6761 MEMB     62       SOPE     C21      CL       0.900000       12.0110           0
      6762 MEMB     62       SOPE     O22      OBL     -0.630000       15.9994           0
      6763 MEMB     62       SOPE     C22      CTL2    -0.220000       12.0110           0
      6764 MEMB     62       SOPE     H2R      HAL2     0.900000E-01   1.00800           0
      6765 MEMB     62       SOPE     H2S      HAL2     0.900000E-01   1.00800           0
      6766 MEMB     62       SOPE     C3       CTL2     0.800000E-01   12.0110           0
      6767 MEMB     62       SOPE     HX       HAL2     0.900000E-01   1.00800           0
      6768 MEMB     62       SOPE     HY       HAL2     0.900000E-01   1.00800           0
      6769 MEMB     62       SOPE     O31      OSL     -0.490000       15.9994           0
      6770 MEMB     62       SOPE     C31      CL       0.900000       12.0110           0
      6771 MEMB     62       SOPE     O32      OBL     -0.630000       15.9994           0
      6772 MEMB     62       SOPE     C32      CTL2    -0.220000       12.0110           0
      6773 MEMB     62       SOPE     H2X      HAL2     0.900000E-01   1.00800           0
      6774 MEMB     62       SOPE     H2Y      HAL2     0.900000E-01   1.00800           0
      6775 MEMB     62       SOPE     C23      CTL2    -0.180000       12.0110           0
      6776 MEMB     62       SOPE     H3R      HAL2     0.900000E-01   1.00800           0
      6777 MEMB     62       SOPE     H3S      HAL2     0.900000E-01   1.00800           0
      6778 MEMB     62       SOPE     C24      CTL2    -0.180000       12.0110           0
      6779 MEMB     62       SOPE     H4R      HAL2     0.900000E-01   1.00800           0
      6780 MEMB     62       SOPE     H4S      HAL2     0.900000E-01   1.00800           0
      6781 MEMB     62       SOPE     C25      CTL2    -0.180000       12.0110           0
      6782 MEMB     62       SOPE     H5R      HAL2     0.900000E-01   1.00800           0
      6783 MEMB     62       SOPE     H5S      HAL2     0.900000E-01   1.00800           0
      6784 MEMB     62       SOPE     C26      CTL2    -0.180000       12.0110           0
      6785 MEMB     62       SOPE     H6R      HAL2     0.900000E-01   1.00800           0
      6786 MEMB     62       SOPE     H6S      HAL2     0.900000E-01   1.00800           0
      6787 MEMB     62       SOPE     C27      CTL2    -0.180000       12.0110           0
      6788 MEMB     62       SOPE     H7R      HAL2     0.900000E-01   1.00800           0
      6789 MEMB     62       SOPE     H7S      HAL2     0.900000E-01   1.00800           0
      6790 MEMB     62       SOPE     C28      CTL2    -0.180000       12.0110           0
      6791 MEMB     62       SOPE     H8R      HAL2     0.900000E-01   1.00800           0
      6792 MEMB     62       SOPE     H8S      HAL2     0.900000E-01   1.00800           0
      6793 MEMB     62       SOPE     C29      CEL1    -0.150000       12.0110           0
      6794 MEMB     62       SOPE     H91      HEL1     0.150000       1.00800           0
      6795 MEMB     62       SOPE     C210     CEL1    -0.150000       12.0110           0
      6796 MEMB     62       SOPE     H101     HEL1     0.150000       1.00800           0
      6797 MEMB     62       SOPE     C211     CTL2    -0.180000       12.0110           0
      6798 MEMB     62       SOPE     H11R     HAL2     0.900000E-01   1.00800           0
      6799 MEMB     62       SOPE     H11S     HAL2     0.900000E-01   1.00800           0
      6800 MEMB     62       SOPE     C212     CTL2    -0.180000       12.0110           0
      6801 MEMB     62       SOPE     H12R     HAL2     0.900000E-01   1.00800           0
      6802 MEMB     62       SOPE     H12S     HAL2     0.900000E-01   1.00800           0
      6803 MEMB     62       SOPE     C213     CTL2    -0.180000       12.0110           0
      6804 MEMB     62       SOPE     H13R     HAL2     0.900000E-01   1.00800           0
      6805 MEMB     62       SOPE     H13S     HAL2     0.900000E-01   1.00800           0
      6806 MEMB     62       SOPE     C214     CTL2    -0.180000       12.0110           0
      6807 MEMB     62       SOPE     H14R     HAL2     0.900000E-01   1.00800           0
      6808 MEMB     62       SOPE     H14S     HAL2     0.900000E-01   1.00800           0
      6809 MEMB     62       SOPE     C215     CTL2    -0.180000       12.0110           0
      6810 MEMB     62       SOPE     H15R     HAL2     0.900000E-01   1.00800           0
      6811 MEMB     62       SOPE     H15S     HAL2     0.900000E-01   1.00800           0
      6812 MEMB     62       SOPE     C216     CTL2    -0.180000       12.0110           0
      6813 MEMB     62       SOPE     H16R     HAL2     0.900000E-01   1.00800           0
      6814 MEMB     62       SOPE     H16S     HAL2     0.900000E-01   1.00800           0
      6815 MEMB     62       SOPE     C217     CTL2    -0.180000       12.0110           0
      6816 MEMB     62       SOPE     H17R     HAL2     0.900000E-01   1.00800           0
      6817 MEMB     62       SOPE     H17S     HAL2     0.900000E-01   1.00800           0
      6818 MEMB     62       SOPE     C218     CTL3    -0.270000       12.0110           0
      6819 MEMB     62       SOPE     H18R     HAL3     0.900000E-01   1.00800           0
      6820 MEMB     62       SOPE     H18S     HAL3     0.900000E-01   1.00800           0
      6821 MEMB     62       SOPE     H18T     HAL3     0.900000E-01   1.00800           0
      6822 MEMB     62       SOPE     C33      CTL2    -0.180000       12.0110           0
      6823 MEMB     62       SOPE     H3X      HAL2     0.900000E-01   1.00800           0
      6824 MEMB     62       SOPE     H3Y      HAL2     0.900000E-01   1.00800           0
      6825 MEMB     62       SOPE     C34      CTL2    -0.180000       12.0110           0
      6826 MEMB     62       SOPE     H4X      HAL2     0.900000E-01   1.00800           0
      6827 MEMB     62       SOPE     H4Y      HAL2     0.900000E-01   1.00800           0
      6828 MEMB     62       SOPE     C35      CTL2    -0.180000       12.0110           0
      6829 MEMB     62       SOPE     H5X      HAL2     0.900000E-01   1.00800           0
      6830 MEMB     62       SOPE     H5Y      HAL2     0.900000E-01   1.00800           0
      6831 MEMB     62       SOPE     C36      CTL2    -0.180000       12.0110           0
      6832 MEMB     62       SOPE     H6X      HAL2     0.900000E-01   1.00800           0
      6833 MEMB     62       SOPE     H6Y      HAL2     0.900000E-01   1.00800           0
      6834 MEMB     62       SOPE     C37      CTL2    -0.180000       12.0110           0
      6835 MEMB     62       SOPE     H7X      HAL2     0.900000E-01   1.00800           0
      6836 MEMB     62       SOPE     H7Y      HAL2     0.900000E-01   1.00800           0
      6837 MEMB     62       SOPE     C38      CTL2    -0.180000       12.0110           0
      6838 MEMB     62       SOPE     H8X      HAL2     0.900000E-01   1.00800           0
      6839 MEMB     62       SOPE     H8Y      HAL2     0.900000E-01   1.00800           0
      6840 MEMB     62       SOPE     C39      CTL2    -0.180000       12.0110           0
      6841 MEMB     62       SOPE     H9X      HAL2     0.900000E-01   1.00800           0
      6842 MEMB     62       SOPE     H9Y      HAL2     0.900000E-01   1.00800           0
      6843 MEMB     62       SOPE     C310     CTL2    -0.180000       12.0110           0
      6844 MEMB     62       SOPE     H10X     HAL2     0.900000E-01   1.00800           0
      6845 MEMB     62       SOPE     H10Y     HAL2     0.900000E-01   1.00800           0
      6846 MEMB     62       SOPE     C311     CTL2    -0.180000       12.0110           0
      6847 MEMB     62       SOPE     H11X     HAL2     0.900000E-01   1.00800           0
      6848 MEMB     62       SOPE     H11Y     HAL2     0.900000E-01   1.00800           0
      6849 MEMB     62       SOPE     C312     CTL2    -0.180000       12.0110           0
      6850 MEMB     62       SOPE     H12X     HAL2     0.900000E-01   1.00800           0
      6851 MEMB     62       SOPE     H12Y     HAL2     0.900000E-01   1.00800           0
      6852 MEMB     62       SOPE     C313     CTL2    -0.180000       12.0110           0
      6853 MEMB     62       SOPE     H13X     HAL2     0.900000E-01   1.00800           0
      6854 MEMB     62       SOPE     H13Y     HAL2     0.900000E-01   1.00800           0
      6855 MEMB     62       SOPE     C314     CTL2    -0.180000       12.0110           0
      6856 MEMB     62       SOPE     H14X     HAL2     0.900000E-01   1.00800           0
      6857 MEMB     62       SOPE     H14Y     HAL2     0.900000E-01   1.00800           0
      6858 MEMB     62       SOPE     C315     CTL2    -0.180000       12.0110           0
      6859 MEMB     62       SOPE     H15X     HAL2     0.900000E-01   1.00800           0
      6860 MEMB     62       SOPE     H15Y     HAL2     0.900000E-01   1.00800           0
      6861 MEMB     62       SOPE     C316     CTL2    -0.180000       12.0110           0
      6862 MEMB     62       SOPE     H16X     HAL2     0.900000E-01   1.00800           0
      6863 MEMB     62       SOPE     H16Y     HAL2     0.900000E-01   1.00800           0
      6864 MEMB     62       SOPE     C317     CTL2    -0.180000       12.0110           0
      6865 MEMB     62       SOPE     H17X     HAL2     0.900000E-01   1.00800           0
      6866 MEMB     62       SOPE     H17Y     HAL2     0.900000E-01   1.00800           0
      6867 MEMB     62       SOPE     C318     CTL3    -0.270000       12.0110           0
      6868 MEMB     62       SOPE     H18X     HAL3     0.900000E-01   1.00800           0
      6869 MEMB     62       SOPE     H18Y     HAL3     0.900000E-01   1.00800           0
      6870 MEMB     62       SOPE     H18Z     HAL3     0.900000E-01   1.00800           0
      6871 MEMB     63       SAPS     N        NH3L    -0.300000       14.0070           0
      6872 MEMB     63       SAPS     HN1      HCL      0.330000       1.00800           0
      6873 MEMB     63       SAPS     HN2      HCL      0.330000       1.00800           0
      6874 MEMB     63       SAPS     HN3      HCL      0.330000       1.00800           0
      6875 MEMB     63       SAPS     C12      CTL1     0.210000       12.0110           0
      6876 MEMB     63       SAPS     H12A     HBL      0.100000       1.00800           0
      6877 MEMB     63       SAPS     C13      CCL      0.340000       12.0110           0
      6878 MEMB     63       SAPS     O13A     OCL     -0.670000       15.9994           0
      6879 MEMB     63       SAPS     O13B     OCL     -0.670000       15.9994           0
      6880 MEMB     63       SAPS     C11      CTL2    -0.800000E-01   12.0110           0
      6881 MEMB     63       SAPS     H11A     HAL2     0.900000E-01   1.00800           0
      6882 MEMB     63       SAPS     H11B     HAL2     0.900000E-01   1.00800           0
      6883 MEMB     63       SAPS     P        PL        1.50000       30.9740           0
      6884 MEMB     63       SAPS     O13      O2L     -0.780000       15.9994           0
      6885 MEMB     63       SAPS     O14      O2L     -0.780000       15.9994           0
      6886 MEMB     63       SAPS     O12      OSLP    -0.570000       15.9994           0
      6887 MEMB     63       SAPS     O11      OSLP    -0.570000       15.9994           0
      6888 MEMB     63       SAPS     C1       CTL2    -0.800000E-01   12.0110           0
      6889 MEMB     63       SAPS     HA       HAL2     0.900000E-01   1.00800           0
      6890 MEMB     63       SAPS     HB       HAL2     0.900000E-01   1.00800           0
      6891 MEMB     63       SAPS     C2       CTL1     0.170000       12.0110           0
      6892 MEMB     63       SAPS     HS       HAL1     0.900000E-01   1.00800           0
      6893 MEMB     63       SAPS     O21      OSL     -0.490000       15.9994           0
      6894 MEMB     63       SAPS     C21      CL       0.900000       12.0110           0
      6895 MEMB     63       SAPS     O22      OBL     -0.630000       15.9994           0
      6896 MEMB     63       SAPS     C22      CTL2    -0.220000       12.0110           0
      6897 MEMB     63       SAPS     H2R      HAL2     0.900000E-01   1.00800           0
      6898 MEMB     63       SAPS     H2S      HAL2     0.900000E-01   1.00800           0
      6899 MEMB     63       SAPS     C3       CTL2     0.800000E-01   12.0110           0
      6900 MEMB     63       SAPS     HX       HAL2     0.900000E-01   1.00800           0
      6901 MEMB     63       SAPS     HY       HAL2     0.900000E-01   1.00800           0
      6902 MEMB     63       SAPS     O31      OSL     -0.490000       15.9994           0
      6903 MEMB     63       SAPS     C31      CL       0.900000       12.0110           0
      6904 MEMB     63       SAPS     O32      OBL     -0.630000       15.9994           0
      6905 MEMB     63       SAPS     C32      CTL2    -0.220000       12.0110           0
      6906 MEMB     63       SAPS     H2X      HAL2     0.900000E-01   1.00800           0
      6907 MEMB     63       SAPS     H2Y      HAL2     0.900000E-01   1.00800           0
      6908 MEMB     63       SAPS     C23      CTL2    -0.180000       12.0110           0
      6909 MEMB     63       SAPS     H3R      HAL2     0.900000E-01   1.00800           0
      6910 MEMB     63       SAPS     H3S      HAL2     0.900000E-01   1.00800           0
      6911 MEMB     63       SAPS     C24      CTL2    -0.180000       12.0110           0
      6912 MEMB     63       SAPS     H4R      HAL2     0.900000E-01   1.00800           0
      6913 MEMB     63       SAPS     H4S      HAL2     0.900000E-01   1.00800           0
      6914 MEMB     63       SAPS     C25      CEL1    -0.150000       12.0110           0
      6915 MEMB     63       SAPS     H5R      HEL1     0.150000       1.00800           0
      6916 MEMB     63       SAPS     C26      CEL1    -0.150000       12.0110           0
      6917 MEMB     63       SAPS     H6R      HEL1     0.150000       1.00800           0
      6918 MEMB     63       SAPS     C27      CTL2    -0.180000       12.0110           0
      6919 MEMB     63       SAPS     H7R      HAL2     0.900000E-01   1.00800           0
      6920 MEMB     63       SAPS     H7S      HAL2     0.900000E-01   1.00800           0
      6921 MEMB     63       SAPS     C28      CEL1    -0.150000       12.0110           0
      6922 MEMB     63       SAPS     H8R      HEL1     0.150000       1.00800           0
      6923 MEMB     63       SAPS     C29      CEL1    -0.150000       12.0110           0
      6924 MEMB     63       SAPS     H9R      HEL1     0.150000       1.00800           0
      6925 MEMB     63       SAPS     C210     CTL2    -0.180000       12.0110           0
      6926 MEMB     63       SAPS     H10R     HAL2     0.900000E-01   1.00800           0
      6927 MEMB     63       SAPS     H10S     HAL2     0.900000E-01   1.00800           0
      6928 MEMB     63       SAPS     C211     CEL1    -0.150000       12.0110           0
      6929 MEMB     63       SAPS     H11R     HEL1     0.150000       1.00800           0
      6930 MEMB     63       SAPS     C212     CEL1    -0.150000       12.0110           0
      6931 MEMB     63       SAPS     H12R     HEL1     0.150000       1.00800           0
      6932 MEMB     63       SAPS     C213     CTL2    -0.180000       12.0110           0
      6933 MEMB     63       SAPS     H13R     HAL2     0.900000E-01   1.00800           0
      6934 MEMB     63       SAPS     H13S     HAL2     0.900000E-01   1.00800           0
      6935 MEMB     63       SAPS     C214     CEL1    -0.150000       12.0110           0
      6936 MEMB     63       SAPS     H14R     HEL1     0.150000       1.00800           0
      6937 MEMB     63       SAPS     C215     CEL1    -0.150000       12.0110           0
      6938 MEMB     63       SAPS     H15R     HEL1     0.150000       1.00800           0
      6939 MEMB     63       SAPS     C216     CTL2    -0.180000       12.0110           0
      6940 MEMB     63       SAPS     H16R     HAL2     0.900000E-01   1.00800           0
      6941 MEMB     63       SAPS     H16S     HAL2     0.900000E-01   1.00800           0
      6942 MEMB     63       SAPS     C217     CTL2    -0.180000       12.0110           0
      6943 MEMB     63       SAPS     H17R     HAL2     0.900000E-01   1.00800           0
      6944 MEMB     63       SAPS     H17S     HAL2     0.900000E-01   1.00800           0
      6945 MEMB     63       SAPS     C218     CTL2    -0.180000       12.0110           0
      6946 MEMB     63       SAPS     H18R     HAL2     0.900000E-01   1.00800           0
      6947 MEMB     63       SAPS     H18S     HAL2     0.900000E-01   1.00800           0
      6948 MEMB     63       SAPS     C219     CTL2    -0.180000       12.0110           0
      6949 MEMB     63       SAPS     H19R     HAL2     0.900000E-01   1.00800           0
      6950 MEMB     63       SAPS     H19S     HAL2     0.900000E-01   1.00800           0
      6951 MEMB     63       SAPS     C220     CTL3    -0.270000       12.0110           0
      6952 MEMB     63       SAPS     H20R     HAL3     0.900000E-01   1.00800           0
      6953 MEMB     63       SAPS     H20S     HAL3     0.900000E-01   1.00800           0
      6954 MEMB     63       SAPS     H20T     HAL3     0.900000E-01   1.00800           0
      6955 MEMB     63       SAPS     C33      CTL2    -0.180000       12.0110           0
      6956 MEMB     63       SAPS     H3X      HAL2     0.900000E-01   1.00800           0
      6957 MEMB     63       SAPS     H3Y      HAL2     0.900000E-01   1.00800           0
      6958 MEMB     63       SAPS     C34      CTL2    -0.180000       12.0110           0
      6959 MEMB     63       SAPS     H4X      HAL2     0.900000E-01   1.00800           0
      6960 MEMB     63       SAPS     H4Y      HAL2     0.900000E-01   1.00800           0
      6961 MEMB     63       SAPS     C35      CTL2    -0.180000       12.0110           0
      6962 MEMB     63       SAPS     H5X      HAL2     0.900000E-01   1.00800           0
      6963 MEMB     63       SAPS     H5Y      HAL2     0.900000E-01   1.00800           0
      6964 MEMB     63       SAPS     C36      CTL2    -0.180000       12.0110           0
      6965 MEMB     63       SAPS     H6X      HAL2     0.900000E-01   1.00800           0
      6966 MEMB     63       SAPS     H6Y      HAL2     0.900000E-01   1.00800           0
      6967 MEMB     63       SAPS     C37      CTL2    -0.180000       12.0110           0
      6968 MEMB     63       SAPS     H7X      HAL2     0.900000E-01   1.00800           0
      6969 MEMB     63       SAPS     H7Y      HAL2     0.900000E-01   1.00800           0
      6970 MEMB     63       SAPS     C38      CTL2    -0.180000       12.0110           0
      6971 MEMB     63       SAPS     H8X      HAL2     0.900000E-01   1.00800           0
      6972 MEMB     63       SAPS     H8Y      HAL2     0.900000E-01   1.00800           0
      6973 MEMB     63       SAPS     C39      CTL2    -0.180000       12.0110           0
      6974 MEMB     63       SAPS     H9X      HAL2     0.900000E-01   1.00800           0
      6975 MEMB     63       SAPS     H9Y      HAL2     0.900000E-01   1.00800           0
      6976 MEMB     63       SAPS     C310     CTL2    -0.180000       12.0110           0
      6977 MEMB     63       SAPS     H10X     HAL2     0.900000E-01   1.00800           0
      6978 MEMB     63       SAPS     H10Y     HAL2     0.900000E-01   1.00800           0
      6979 MEMB     63       SAPS     C311     CTL2    -0.180000       12.0110           0
      6980 MEMB     63       SAPS     H11X     HAL2     0.900000E-01   1.00800           0
      6981 MEMB     63       SAPS     H11Y     HAL2     0.900000E-01   1.00800           0
      6982 MEMB     63       SAPS     C312     CTL2    -0.180000       12.0110           0
      6983 MEMB     63       SAPS     H12X     HAL2     0.900000E-01   1.00800           0
      6984 MEMB     63       SAPS     H12Y     HAL2     0.900000E-01   1.00800           0
      6985 MEMB     63       SAPS     C313     CTL2    -0.180000       12.0110           0
      6986 MEMB     63       SAPS     H13X     HAL2     0.900000E-01   1.00800           0
      6987 MEMB     63       SAPS     H13Y     HAL2     0.900000E-01   1.00800           0
      6988 MEMB     63       SAPS     C314     CTL2    -0.180000       12.0110           0
      6989 MEMB     63       SAPS     H14X     HAL2     0.900000E-01   1.00800           0
      6990 MEMB     63       SAPS     H14Y     HAL2     0.900000E-01   1.00800           0
      6991 MEMB     63       SAPS     C315     CTL2    -0.180000       12.0110           0
      6992 MEMB     63       SAPS     H15X     HAL2     0.900000E-01   1.00800           0
      6993 MEMB     63       SAPS     H15Y     HAL2     0.900000E-01   1.00800           0
      6994 MEMB     63       SAPS     C316     CTL2    -0.180000       12.0110           0
      6995 MEMB     63       SAPS     H16X     HAL2     0.900000E-01   1.00800           0
      6996 MEMB     63       SAPS     H16Y     HAL2     0.900000E-01   1.00800           0
      6997 MEMB     63       SAPS     C317     CTL2    -0.180000       12.0110           0
      6998 MEMB     63       SAPS     H17X     HAL2     0.900000E-01   1.00800           0
      6999 MEMB     63       SAPS     H17Y     HAL2     0.900000E-01   1.00800           0
      7000 MEMB     63       SAPS     C318     CTL3    -0.270000       12.0110           0
      7001 MEMB     63       SAPS     H18X     HAL3     0.900000E-01   1.00800           0
      7002 MEMB     63       SAPS     H18Y     HAL3     0.900000E-01   1.00800           0
      7003 MEMB     63       SAPS     H18Z     HAL3     0.900000E-01   1.00800           0
      7004 MEMB     64       OSM      N        NTL     -0.600000       14.0070           0
      7005 MEMB     64       OSM      C15      CTL5    -0.350000       12.0110           0
      7006 MEMB     64       OSM      H15A     HL       0.250000       1.00800           0
      7007 MEMB     64       OSM      H15B     HL       0.250000       1.00800           0
      7008 MEMB     64       OSM      H15C     HL       0.250000       1.00800           0
      7009 MEMB     64       OSM      C14      CTL5    -0.350000       12.0110           0
      7010 MEMB     64       OSM      H14A     HL       0.250000       1.00800           0
      7011 MEMB     64       OSM      H14B     HL       0.250000       1.00800           0
      7012 MEMB     64       OSM      H14C     HL       0.250000       1.00800           0
      7013 MEMB     64       OSM      C13      CTL5    -0.350000       12.0110           0
      7014 MEMB     64       OSM      H13A     HL       0.250000       1.00800           0
      7015 MEMB     64       OSM      H13B     HL       0.250000       1.00800           0
      7016 MEMB     64       OSM      H13C     HL       0.250000       1.00800           0
      7017 MEMB     64       OSM      C12      CTL2    -0.100000       12.0110           0
      7018 MEMB     64       OSM      H12A     HL       0.250000       1.00800           0
      7019 MEMB     64       OSM      H12B     HL       0.250000       1.00800           0
      7020 MEMB     64       OSM      C11      CTL2    -0.800000E-01   12.0110           0
      7021 MEMB     64       OSM      H11A     HAL2     0.900000E-01   1.00800           0
      7022 MEMB     64       OSM      H11B     HAL2     0.900000E-01   1.00800           0
      7023 MEMB     64       OSM      P        PL        1.50000       30.9740           0
      7024 MEMB     64       OSM      O13      O2L     -0.780000       15.9994           0
      7025 MEMB     64       OSM      O14      O2L     -0.780000       15.9994           0
      7026 MEMB     64       OSM      O11      OSLP    -0.570000       15.9994           0
      7027 MEMB     64       OSM      O12      OSLP    -0.570000       15.9994           0
      7028 MEMB     64       OSM      C1S      CTL2    -0.800000E-01   12.0110           0
      7029 MEMB     64       OSM      H1S      HAL2     0.900000E-01   1.00800           0
      7030 MEMB     64       OSM      H1T      HAL2     0.900000E-01   1.00800           0
      7031 MEMB     64       OSM      NF       NHL     -0.700000       14.0070           0
      7032 MEMB     64       OSM      HNF      H        0.350000       1.00800           0
      7033 MEMB     64       OSM      C2S      CTL1     0.300000       12.0110           0
      7034 MEMB     64       OSM      H2S      HAL1     0.500000E-01   1.00800           0
      7035 MEMB     64       OSM      C3S      CTO1     0.500000       12.0110           0
      7036 MEMB     64       OSM      H3S      HAL1    -0.110000       1.00800           0
      7037 MEMB     64       OSM      O3       OHL     -0.690000       15.9994           0
      7038 MEMB     64       OSM      HO3      HOL      0.300000       1.00800           0
      7039 MEMB     64       OSM      C4S      CEL3    -0.150000       12.0110           0
      7040 MEMB     64       OSM      H4S      HEL1     0.150000       1.00800           0
      7041 MEMB     64       OSM      C5S      CEL3    -0.150000       12.0110           0
      7042 MEMB     64       OSM      H5S      HEL1     0.150000       1.00800           0
      7043 MEMB     64       OSM      C6S      CTL2    -0.180000       12.0110           0
      7044 MEMB     64       OSM      H6S      HAL2     0.900000E-01   1.00800           0
      7045 MEMB     64       OSM      H6T      HAL2     0.900000E-01   1.00800           0
      7046 MEMB     64       OSM      C7S      CTL2    -0.180000       12.0110           0
      7047 MEMB     64       OSM      H7S      HAL2     0.900000E-01   1.00800           0
      7048 MEMB     64       OSM      H7T      HAL2     0.900000E-01   1.00800           0
      7049 MEMB     64       OSM      C8S      CTL2    -0.180000       12.0110           0
      7050 MEMB     64       OSM      H8S      HAL2     0.900000E-01   1.00800           0
      7051 MEMB     64       OSM      H8T      HAL2     0.900000E-01   1.00800           0
      7052 MEMB     64       OSM      C9S      CTL2    -0.180000       12.0110           0
      7053 MEMB     64       OSM      H9S      HAL2     0.900000E-01   1.00800           0
      7054 MEMB     64       OSM      H9T      HAL2     0.900000E-01   1.00800           0
      7055 MEMB     64       OSM      C10S     CTL2    -0.180000       12.0110           0
      7056 MEMB     64       OSM      H10S     HAL2     0.900000E-01   1.00800           0
      7057 MEMB     64       OSM      H10T     HAL2     0.900000E-01   1.00800           0
      7058 MEMB     64       OSM      C11S     CTL2    -0.180000       12.0110           0
      7059 MEMB     64       OSM      H11S     HAL2     0.900000E-01   1.00800           0
      7060 MEMB     64       OSM      H11T     HAL2     0.900000E-01   1.00800           0
      7061 MEMB     64       OSM      C12S     CTL2    -0.180000       12.0110           0
      7062 MEMB     64       OSM      H12S     HAL2     0.900000E-01   1.00800           0
      7063 MEMB     64       OSM      H12T     HAL2     0.900000E-01   1.00800           0
      7064 MEMB     64       OSM      C13S     CTL2    -0.180000       12.0110           0
      7065 MEMB     64       OSM      H13S     HAL2     0.900000E-01   1.00800           0
      7066 MEMB     64       OSM      H13T     HAL2     0.900000E-01   1.00800           0
      7067 MEMB     64       OSM      C14S     CTL2    -0.180000       12.0110           0
      7068 MEMB     64       OSM      H14S     HAL2     0.900000E-01   1.00800           0
      7069 MEMB     64       OSM      H14T     HAL2     0.900000E-01   1.00800           0
      7070 MEMB     64       OSM      C15S     CTL2    -0.180000       12.0110           0
      7071 MEMB     64       OSM      H15S     HAL2     0.900000E-01   1.00800           0
      7072 MEMB     64       OSM      H15T     HAL2     0.900000E-01   1.00800           0
      7073 MEMB     64       OSM      C16S     CTL2    -0.180000       12.0110           0
      7074 MEMB     64       OSM      H16S     HAL2     0.900000E-01   1.00800           0
      7075 MEMB     64       OSM      H16T     HAL2     0.900000E-01   1.00800           0
      7076 MEMB     64       OSM      C17S     CTL2    -0.180000       12.0110           0
      7077 MEMB     64       OSM      H17S     HAL2     0.900000E-01   1.00800           0
      7078 MEMB     64       OSM      H17T     HAL2     0.900000E-01   1.00800           0
      7079 MEMB     64       OSM      C18S     CTL3    -0.270000       12.0110           0
      7080 MEMB     64       OSM      H18S     HAL3     0.900000E-01   1.00800           0
      7081 MEMB     64       OSM      H18T     HAL3     0.900000E-01   1.00800           0
      7082 MEMB     64       OSM      H18U     HAL3     0.900000E-01   1.00800           0
      7083 MEMB     64       OSM      C1F      C        0.550000       12.0110           0
      7084 MEMB     64       OSM      OF       O       -0.600000       15.9994           0
      7085 MEMB     64       OSM      C2F      CTL2    -0.700000E-01   12.0110           0
      7086 MEMB     64       OSM      H2F      HAL2     0.600000E-01   1.00800           0
      7087 MEMB     64       OSM      H2G      HAL2     0.600000E-01   1.00800           0
      7088 MEMB     64       OSM      C3F      CTL2    -0.180000       12.0110           0
      7089 MEMB     64       OSM      H3F      HAL2     0.900000E-01   1.00800           0
      7090 MEMB     64       OSM      H3G      HAL2     0.900000E-01   1.00800           0
      7091 MEMB     64       OSM      C4F      CTL2    -0.180000       12.0110           0
      7092 MEMB     64       OSM      H4F      HAL2     0.900000E-01   1.00800           0
      7093 MEMB     64       OSM      H4G      HAL2     0.900000E-01   1.00800           0
      7094 MEMB     64       OSM      C5F      CTL2    -0.180000       12.0110           0
      7095 MEMB     64       OSM      H5F      HAL2     0.900000E-01   1.00800           0
      7096 MEMB     64       OSM      H5G      HAL2     0.900000E-01   1.00800           0
      7097 MEMB     64       OSM      C6F      CTL2    -0.180000       12.0110           0
      7098 MEMB     64       OSM      H6F      HAL2     0.900000E-01   1.00800           0
      7099 MEMB     64       OSM      H6G      HAL2     0.900000E-01   1.00800           0
      7100 MEMB     64       OSM      C7F      CTL2    -0.180000       12.0110           0
      7101 MEMB     64       OSM      H7F      HAL2     0.900000E-01   1.00800           0
      7102 MEMB     64       OSM      H7G      HAL2     0.900000E-01   1.00800           0
      7103 MEMB     64       OSM      C8F      CTL2    -0.180000       12.0110           0
      7104 MEMB     64       OSM      H8F      HAL2     0.900000E-01   1.00800           0
      7105 MEMB     64       OSM      H8G      HAL2     0.900000E-01   1.00800           0
      7106 MEMB     64       OSM      C9F      CEL1    -0.150000       12.0110           0
      7107 MEMB     64       OSM      H9F      HEL1     0.150000       1.00800           0
      7108 MEMB     64       OSM      C10F     CEL1    -0.150000       12.0110           0
      7109 MEMB     64       OSM      H10F     HEL1     0.150000       1.00800           0
      7110 MEMB     64       OSM      C11F     CTL2    -0.180000       12.0110           0
      7111 MEMB     64       OSM      H11F     HAL2     0.900000E-01   1.00800           0
      7112 MEMB     64       OSM      H11G     HAL2     0.900000E-01   1.00800           0
      7113 MEMB     64       OSM      C12F     CTL2    -0.180000       12.0110           0
      7114 MEMB     64       OSM      H12F     HAL2     0.900000E-01   1.00800           0
      7115 MEMB     64       OSM      H12G     HAL2     0.900000E-01   1.00800           0
      7116 MEMB     64       OSM      C13F     CTL2    -0.180000       12.0110           0
      7117 MEMB     64       OSM      H13F     HAL2     0.900000E-01   1.00800           0
      7118 MEMB     64       OSM      H13G     HAL2     0.900000E-01   1.00800           0
      7119 MEMB     64       OSM      C14F     CTL2    -0.180000       12.0110           0
      7120 MEMB     64       OSM      H14F     HAL2     0.900000E-01   1.00800           0
      7121 MEMB     64       OSM      H14G     HAL2     0.900000E-01   1.00800           0
      7122 MEMB     64       OSM      C15F     CTL2    -0.180000       12.0110           0
      7123 MEMB     64       OSM      H15F     HAL2     0.900000E-01   1.00800           0
      7124 MEMB     64       OSM      H15G     HAL2     0.900000E-01   1.00800           0
      7125 MEMB     64       OSM      C16F     CTL2    -0.180000       12.0110           0
      7126 MEMB     64       OSM      H16F     HAL2     0.900000E-01   1.00800           0
      7127 MEMB     64       OSM      H16G     HAL2     0.900000E-01   1.00800           0
      7128 MEMB     64       OSM      C17F     CTL2    -0.180000       12.0110           0
      7129 MEMB     64       OSM      H17F     HAL2     0.900000E-01   1.00800           0
      7130 MEMB     64       OSM      H17G     HAL2     0.900000E-01   1.00800           0
      7131 MEMB     64       OSM      C18F     CTL3    -0.270000       12.0110           0
      7132 MEMB     64       OSM      H18F     HAL3     0.900000E-01   1.00800           0
      7133 MEMB     64       OSM      H18G     HAL3     0.900000E-01   1.00800           0
      7134 MEMB     64       OSM      H18H     HAL3     0.900000E-01   1.00800           0
      7135 MEMB     65       SAPE     N        NH3L    -0.300000       14.0070           0
      7136 MEMB     65       SAPE     HN1      HCL      0.330000       1.00800           0
      7137 MEMB     65       SAPE     HN2      HCL      0.330000       1.00800           0
      7138 MEMB     65       SAPE     HN3      HCL      0.330000       1.00800           0
      7139 MEMB     65       SAPE     C12      CTL2     0.130000       12.0110           0
      7140 MEMB     65       SAPE     H12A     HAL2     0.900000E-01   1.00800           0
      7141 MEMB     65       SAPE     H12B     HAL2     0.900000E-01   1.00800           0
      7142 MEMB     65       SAPE     C11      CTL2    -0.800000E-01   12.0110           0
      7143 MEMB     65       SAPE     H11A     HAL2     0.900000E-01   1.00800           0
      7144 MEMB     65       SAPE     H11B     HAL2     0.900000E-01   1.00800           0
      7145 MEMB     65       SAPE     P        PL        1.50000       30.9740           0
      7146 MEMB     65       SAPE     O13      O2L     -0.780000       15.9994           0
      7147 MEMB     65       SAPE     O14      O2L     -0.780000       15.9994           0
      7148 MEMB     65       SAPE     O12      OSLP    -0.570000       15.9994           0
      7149 MEMB     65       SAPE     O11      OSLP    -0.570000       15.9994           0
      7150 MEMB     65       SAPE     C1       CTL2    -0.800000E-01   12.0110           0
      7151 MEMB     65       SAPE     HA       HAL2     0.900000E-01   1.00800           0
      7152 MEMB     65       SAPE     HB       HAL2     0.900000E-01   1.00800           0
      7153 MEMB     65       SAPE     C2       CTL1     0.170000       12.0110           0
      7154 MEMB     65       SAPE     HS       HAL1     0.900000E-01   1.00800           0
      7155 MEMB     65       SAPE     O21      OSL     -0.490000       15.9994           0
      7156 MEMB     65       SAPE     C21      CL       0.900000       12.0110           0
      7157 MEMB     65       SAPE     O22      OBL     -0.630000       15.9994           0
      7158 MEMB     65       SAPE     C22      CTL2    -0.220000       12.0110           0
      7159 MEMB     65       SAPE     H2R      HAL2     0.900000E-01   1.00800           0
      7160 MEMB     65       SAPE     H2S      HAL2     0.900000E-01   1.00800           0
      7161 MEMB     65       SAPE     C3       CTL2     0.800000E-01   12.0110           0
      7162 MEMB     65       SAPE     HX       HAL2     0.900000E-01   1.00800           0
      7163 MEMB     65       SAPE     HY       HAL2     0.900000E-01   1.00800           0
      7164 MEMB     65       SAPE     O31      OSL     -0.490000       15.9994           0
      7165 MEMB     65       SAPE     C31      CL       0.900000       12.0110           0
      7166 MEMB     65       SAPE     O32      OBL     -0.630000       15.9994           0
      7167 MEMB     65       SAPE     C32      CTL2    -0.220000       12.0110           0
      7168 MEMB     65       SAPE     H2X      HAL2     0.900000E-01   1.00800           0
      7169 MEMB     65       SAPE     H2Y      HAL2     0.900000E-01   1.00800           0
      7170 MEMB     65       SAPE     C23      CTL2    -0.180000       12.0110           0
      7171 MEMB     65       SAPE     H3R      HAL2     0.900000E-01   1.00800           0
      7172 MEMB     65       SAPE     H3S      HAL2     0.900000E-01   1.00800           0
      7173 MEMB     65       SAPE     C24      CTL2    -0.180000       12.0110           0
      7174 MEMB     65       SAPE     H4R      HAL2     0.900000E-01   1.00800           0
      7175 MEMB     65       SAPE     H4S      HAL2     0.900000E-01   1.00800           0
      7176 MEMB     65       SAPE     C25      CEL1    -0.150000       12.0110           0
      7177 MEMB     65       SAPE     H5R      HEL1     0.150000       1.00800           0
      7178 MEMB     65       SAPE     C26      CEL1    -0.150000       12.0110           0
      7179 MEMB     65       SAPE     H6R      HEL1     0.150000       1.00800           0
      7180 MEMB     65       SAPE     C27      CTL2    -0.180000       12.0110           0
      7181 MEMB     65       SAPE     H7R      HAL2     0.900000E-01   1.00800           0
      7182 MEMB     65       SAPE     H7S      HAL2     0.900000E-01   1.00800           0
      7183 MEMB     65       SAPE     C28      CEL1    -0.150000       12.0110           0
      7184 MEMB     65       SAPE     H8R      HEL1     0.150000       1.00800           0
      7185 MEMB     65       SAPE     C29      CEL1    -0.150000       12.0110           0
      7186 MEMB     65       SAPE     H9R      HEL1     0.150000       1.00800           0
      7187 MEMB     65       SAPE     C210     CTL2    -0.180000       12.0110           0
      7188 MEMB     65       SAPE     H10R     HAL2     0.900000E-01   1.00800           0
      7189 MEMB     65       SAPE     H10S     HAL2     0.900000E-01   1.00800           0
      7190 MEMB     65       SAPE     C211     CEL1    -0.150000       12.0110           0
      7191 MEMB     65       SAPE     H11R     HEL1     0.150000       1.00800           0
      7192 MEMB     65       SAPE     C212     CEL1    -0.150000       12.0110           0
      7193 MEMB     65       SAPE     H12R     HEL1     0.150000       1.00800           0
      7194 MEMB     65       SAPE     C213     CTL2    -0.180000       12.0110           0
      7195 MEMB     65       SAPE     H13R     HAL2     0.900000E-01   1.00800           0
      7196 MEMB     65       SAPE     H13S     HAL2     0.900000E-01   1.00800           0
      7197 MEMB     65       SAPE     C214     CEL1    -0.150000       12.0110           0
      7198 MEMB     65       SAPE     H14R     HEL1     0.150000       1.00800           0
      7199 MEMB     65       SAPE     C215     CEL1    -0.150000       12.0110           0
      7200 MEMB     65       SAPE     H15R     HEL1     0.150000       1.00800           0
      7201 MEMB     65       SAPE     C216     CTL2    -0.180000       12.0110           0
      7202 MEMB     65       SAPE     H16R     HAL2     0.900000E-01   1.00800           0
      7203 MEMB     65       SAPE     H16S     HAL2     0.900000E-01   1.00800           0
      7204 MEMB     65       SAPE     C217     CTL2    -0.180000       12.0110           0
      7205 MEMB     65       SAPE     H17R     HAL2     0.900000E-01   1.00800           0
      7206 MEMB     65       SAPE     H17S     HAL2     0.900000E-01   1.00800           0
      7207 MEMB     65       SAPE     C218     CTL2    -0.180000       12.0110           0
      7208 MEMB     65       SAPE     H18R     HAL2     0.900000E-01   1.00800           0
      7209 MEMB     65       SAPE     H18S     HAL2     0.900000E-01   1.00800           0
      7210 MEMB     65       SAPE     C219     CTL2    -0.180000       12.0110           0
      7211 MEMB     65       SAPE     H19R     HAL2     0.900000E-01   1.00800           0
      7212 MEMB     65       SAPE     H19S     HAL2     0.900000E-01   1.00800           0
      7213 MEMB     65       SAPE     C220     CTL3    -0.270000       12.0110           0
      7214 MEMB     65       SAPE     H20R     HAL3     0.900000E-01   1.00800           0
      7215 MEMB     65       SAPE     H20S     HAL3     0.900000E-01   1.00800           0
      7216 MEMB     65       SAPE     H20T     HAL3     0.900000E-01   1.00800           0
      7217 MEMB     65       SAPE     C33      CTL2    -0.180000       12.0110           0
      7218 MEMB     65       SAPE     H3X      HAL2     0.900000E-01   1.00800           0
      7219 MEMB     65       SAPE     H3Y      HAL2     0.900000E-01   1.00800           0
      7220 MEMB     65       SAPE     C34      CTL2    -0.180000       12.0110           0
      7221 MEMB     65       SAPE     H4X      HAL2     0.900000E-01   1.00800           0
      7222 MEMB     65       SAPE     H4Y      HAL2     0.900000E-01   1.00800           0
      7223 MEMB     65       SAPE     C35      CTL2    -0.180000       12.0110           0
      7224 MEMB     65       SAPE     H5X      HAL2     0.900000E-01   1.00800           0
      7225 MEMB     65       SAPE     H5Y      HAL2     0.900000E-01   1.00800           0
      7226 MEMB     65       SAPE     C36      CTL2    -0.180000       12.0110           0
      7227 MEMB     65       SAPE     H6X      HAL2     0.900000E-01   1.00800           0
      7228 MEMB     65       SAPE     H6Y      HAL2     0.900000E-01   1.00800           0
      7229 MEMB     65       SAPE     C37      CTL2    -0.180000       12.0110           0
      7230 MEMB     65       SAPE     H7X      HAL2     0.900000E-01   1.00800           0
      7231 MEMB     65       SAPE     H7Y      HAL2     0.900000E-01   1.00800           0
      7232 MEMB     65       SAPE     C38      CTL2    -0.180000       12.0110           0
      7233 MEMB     65       SAPE     H8X      HAL2     0.900000E-01   1.00800           0
      7234 MEMB     65       SAPE     H8Y      HAL2     0.900000E-01   1.00800           0
      7235 MEMB     65       SAPE     C39      CTL2    -0.180000       12.0110           0
      7236 MEMB     65       SAPE     H9X      HAL2     0.900000E-01   1.00800           0
      7237 MEMB     65       SAPE     H9Y      HAL2     0.900000E-01   1.00800           0
      7238 MEMB     65       SAPE     C310     CTL2    -0.180000       12.0110           0
      7239 MEMB     65       SAPE     H10X     HAL2     0.900000E-01   1.00800           0
      7240 MEMB     65       SAPE     H10Y     HAL2     0.900000E-01   1.00800           0
      7241 MEMB     65       SAPE     C311     CTL2    -0.180000       12.0110           0
      7242 MEMB     65       SAPE     H11X     HAL2     0.900000E-01   1.00800           0
      7243 MEMB     65       SAPE     H11Y     HAL2     0.900000E-01   1.00800           0
      7244 MEMB     65       SAPE     C312     CTL2    -0.180000       12.0110           0
      7245 MEMB     65       SAPE     H12X     HAL2     0.900000E-01   1.00800           0
      7246 MEMB     65       SAPE     H12Y     HAL2     0.900000E-01   1.00800           0
      7247 MEMB     65       SAPE     C313     CTL2    -0.180000       12.0110           0
      7248 MEMB     65       SAPE     H13X     HAL2     0.900000E-01   1.00800           0
      7249 MEMB     65       SAPE     H13Y     HAL2     0.900000E-01   1.00800           0
      7250 MEMB     65       SAPE     C314     CTL2    -0.180000       12.0110           0
      7251 MEMB     65       SAPE     H14X     HAL2     0.900000E-01   1.00800           0
      7252 MEMB     65       SAPE     H14Y     HAL2     0.900000E-01   1.00800           0
      7253 MEMB     65       SAPE     C315     CTL2    -0.180000       12.0110           0
      7254 MEMB     65       SAPE     H15X     HAL2     0.900000E-01   1.00800           0
      7255 MEMB     65       SAPE     H15Y     HAL2     0.900000E-01   1.00800           0
      7256 MEMB     65       SAPE     C316     CTL2    -0.180000       12.0110           0
      7257 MEMB     65       SAPE     H16X     HAL2     0.900000E-01   1.00800           0
      7258 MEMB     65       SAPE     H16Y     HAL2     0.900000E-01   1.00800           0
      7259 MEMB     65       SAPE     C317     CTL2    -0.180000       12.0110           0
      7260 MEMB     65       SAPE     H17X     HAL2     0.900000E-01   1.00800           0
      7261 MEMB     65       SAPE     H17Y     HAL2     0.900000E-01   1.00800           0
      7262 MEMB     65       SAPE     C318     CTL3    -0.270000       12.0110           0
      7263 MEMB     65       SAPE     H18X     HAL3     0.900000E-01   1.00800           0
      7264 MEMB     65       SAPE     H18Y     HAL3     0.900000E-01   1.00800           0
      7265 MEMB     65       SAPE     H18Z     HAL3     0.900000E-01   1.00800           0
      7266 MEMB     66       POPC     N        NTL     -0.600000       14.0070           0
      7267 MEMB     66       POPC     C12      CTL2    -0.100000       12.0110           0
      7268 MEMB     66       POPC     H12A     HL       0.250000       1.00800           0
      7269 MEMB     66       POPC     H12B     HL       0.250000       1.00800           0
      7270 MEMB     66       POPC     C13      CTL5    -0.350000       12.0110           0
      7271 MEMB     66       POPC     H13A     HL       0.250000       1.00800           0
      7272 MEMB     66       POPC     H13B     HL       0.250000       1.00800           0
      7273 MEMB     66       POPC     H13C     HL       0.250000       1.00800           0
      7274 MEMB     66       POPC     C14      CTL5    -0.350000       12.0110           0
      7275 MEMB     66       POPC     H14A     HL       0.250000       1.00800           0
      7276 MEMB     66       POPC     H14B     HL       0.250000       1.00800           0
      7277 MEMB     66       POPC     H14C     HL       0.250000       1.00800           0
      7278 MEMB     66       POPC     C15      CTL5    -0.350000       12.0110           0
      7279 MEMB     66       POPC     H15A     HL       0.250000       1.00800           0
      7280 MEMB     66       POPC     H15B     HL       0.250000       1.00800           0
      7281 MEMB     66       POPC     H15C     HL       0.250000       1.00800           0
      7282 MEMB     66       POPC     C11      CTL2    -0.800000E-01   12.0110           0
      7283 MEMB     66       POPC     H11A     HAL2     0.900000E-01   1.00800           0
      7284 MEMB     66       POPC     H11B     HAL2     0.900000E-01   1.00800           0
      7285 MEMB     66       POPC     P        PL        1.50000       30.9740           0
      7286 MEMB     66       POPC     O13      O2L     -0.780000       15.9994           0
      7287 MEMB     66       POPC     O14      O2L     -0.780000       15.9994           0
      7288 MEMB     66       POPC     O12      OSLP    -0.570000       15.9994           0
      7289 MEMB     66       POPC     O11      OSLP    -0.570000       15.9994           0
      7290 MEMB     66       POPC     C1       CTL2    -0.800000E-01   12.0110           0
      7291 MEMB     66       POPC     HA       HAL2     0.900000E-01   1.00800           0
      7292 MEMB     66       POPC     HB       HAL2     0.900000E-01   1.00800           0
      7293 MEMB     66       POPC     C2       CTL1     0.170000       12.0110           0
      7294 MEMB     66       POPC     HS       HAL1     0.900000E-01   1.00800           0
      7295 MEMB     66       POPC     O21      OSL     -0.490000       15.9994           0
      7296 MEMB     66       POPC     C21      CL       0.900000       12.0110           0
      7297 MEMB     66       POPC     O22      OBL     -0.630000       15.9994           0
      7298 MEMB     66       POPC     C22      CTL2    -0.220000       12.0110           0
      7299 MEMB     66       POPC     H2R      HAL2     0.900000E-01   1.00800           0
      7300 MEMB     66       POPC     H2S      HAL2     0.900000E-01   1.00800           0
      7301 MEMB     66       POPC     C3       CTL2     0.800000E-01   12.0110           0
      7302 MEMB     66       POPC     HX       HAL2     0.900000E-01   1.00800           0
      7303 MEMB     66       POPC     HY       HAL2     0.900000E-01   1.00800           0
      7304 MEMB     66       POPC     O31      OSL     -0.490000       15.9994           0
      7305 MEMB     66       POPC     C31      CL       0.900000       12.0110           0
      7306 MEMB     66       POPC     O32      OBL     -0.630000       15.9994           0
      7307 MEMB     66       POPC     C32      CTL2    -0.220000       12.0110           0
      7308 MEMB     66       POPC     H2X      HAL2     0.900000E-01   1.00800           0
      7309 MEMB     66       POPC     H2Y      HAL2     0.900000E-01   1.00800           0
      7310 MEMB     66       POPC     C23      CTL2    -0.180000       12.0110           0
      7311 MEMB     66       POPC     H3R      HAL2     0.900000E-01   1.00800           0
      7312 MEMB     66       POPC     H3S      HAL2     0.900000E-01   1.00800           0
      7313 MEMB     66       POPC     C24      CTL2    -0.180000       12.0110           0
      7314 MEMB     66       POPC     H4R      HAL2     0.900000E-01   1.00800           0
      7315 MEMB     66       POPC     H4S      HAL2     0.900000E-01   1.00800           0
      7316 MEMB     66       POPC     C25      CTL2    -0.180000       12.0110           0
      7317 MEMB     66       POPC     H5R      HAL2     0.900000E-01   1.00800           0
      7318 MEMB     66       POPC     H5S      HAL2     0.900000E-01   1.00800           0
      7319 MEMB     66       POPC     C26      CTL2    -0.180000       12.0110           0
      7320 MEMB     66       POPC     H6R      HAL2     0.900000E-01   1.00800           0
      7321 MEMB     66       POPC     H6S      HAL2     0.900000E-01   1.00800           0
      7322 MEMB     66       POPC     C27      CTL2    -0.180000       12.0110           0
      7323 MEMB     66       POPC     H7R      HAL2     0.900000E-01   1.00800           0
      7324 MEMB     66       POPC     H7S      HAL2     0.900000E-01   1.00800           0
      7325 MEMB     66       POPC     C28      CTL2    -0.180000       12.0110           0
      7326 MEMB     66       POPC     H8R      HAL2     0.900000E-01   1.00800           0
      7327 MEMB     66       POPC     H8S      HAL2     0.900000E-01   1.00800           0
      7328 MEMB     66       POPC     C29      CEL1    -0.150000       12.0110           0
      7329 MEMB     66       POPC     H91      HEL1     0.150000       1.00800           0
      7330 MEMB     66       POPC     C210     CEL1    -0.150000       12.0110           0
      7331 MEMB     66       POPC     H101     HEL1     0.150000       1.00800           0
      7332 MEMB     66       POPC     C211     CTL2    -0.180000       12.0110           0
      7333 MEMB     66       POPC     H11R     HAL2     0.900000E-01   1.00800           0
      7334 MEMB     66       POPC     H11S     HAL2     0.900000E-01   1.00800           0
      7335 MEMB     66       POPC     C212     CTL2    -0.180000       12.0110           0
      7336 MEMB     66       POPC     H12R     HAL2     0.900000E-01   1.00800           0
      7337 MEMB     66       POPC     H12S     HAL2     0.900000E-01   1.00800           0
      7338 MEMB     66       POPC     C213     CTL2    -0.180000       12.0110           0
      7339 MEMB     66       POPC     H13R     HAL2     0.900000E-01   1.00800           0
      7340 MEMB     66       POPC     H13S     HAL2     0.900000E-01   1.00800           0
      7341 MEMB     66       POPC     C214     CTL2    -0.180000       12.0110           0
      7342 MEMB     66       POPC     H14R     HAL2     0.900000E-01   1.00800           0
      7343 MEMB     66       POPC     H14S     HAL2     0.900000E-01   1.00800           0
      7344 MEMB     66       POPC     C215     CTL2    -0.180000       12.0110           0
      7345 MEMB     66       POPC     H15R     HAL2     0.900000E-01   1.00800           0
      7346 MEMB     66       POPC     H15S     HAL2     0.900000E-01   1.00800           0
      7347 MEMB     66       POPC     C216     CTL2    -0.180000       12.0110           0
      7348 MEMB     66       POPC     H16R     HAL2     0.900000E-01   1.00800           0
      7349 MEMB     66       POPC     H16S     HAL2     0.900000E-01   1.00800           0
      7350 MEMB     66       POPC     C217     CTL2    -0.180000       12.0110           0
      7351 MEMB     66       POPC     H17R     HAL2     0.900000E-01   1.00800           0
      7352 MEMB     66       POPC     H17S     HAL2     0.900000E-01   1.00800           0
      7353 MEMB     66       POPC     C218     CTL3    -0.270000       12.0110           0
      7354 MEMB     66       POPC     H18R     HAL3     0.900000E-01   1.00800           0
      7355 MEMB     66       POPC     H18S     HAL3     0.900000E-01   1.00800           0
      7356 MEMB     66       POPC     H18T     HAL3     0.900000E-01   1.00800           0
      7357 MEMB     66       POPC     C33      CTL2    -0.180000       12.0110           0
      7358 MEMB     66       POPC     H3X      HAL2     0.900000E-01   1.00800           0
      7359 MEMB     66       POPC     H3Y      HAL2     0.900000E-01   1.00800           0
      7360 MEMB     66       POPC     C34      CTL2    -0.180000       12.0110           0
      7361 MEMB     66       POPC     H4X      HAL2     0.900000E-01   1.00800           0
      7362 MEMB     66       POPC     H4Y      HAL2     0.900000E-01   1.00800           0
      7363 MEMB     66       POPC     C35      CTL2    -0.180000       12.0110           0
      7364 MEMB     66       POPC     H5X      HAL2     0.900000E-01   1.00800           0
      7365 MEMB     66       POPC     H5Y      HAL2     0.900000E-01   1.00800           0
      7366 MEMB     66       POPC     C36      CTL2    -0.180000       12.0110           0
      7367 MEMB     66       POPC     H6X      HAL2     0.900000E-01   1.00800           0
      7368 MEMB     66       POPC     H6Y      HAL2     0.900000E-01   1.00800           0
      7369 MEMB     66       POPC     C37      CTL2    -0.180000       12.0110           0
      7370 MEMB     66       POPC     H7X      HAL2     0.900000E-01   1.00800           0
      7371 MEMB     66       POPC     H7Y      HAL2     0.900000E-01   1.00800           0
      7372 MEMB     66       POPC     C38      CTL2    -0.180000       12.0110           0
      7373 MEMB     66       POPC     H8X      HAL2     0.900000E-01   1.00800           0
      7374 MEMB     66       POPC     H8Y      HAL2     0.900000E-01   1.00800           0
      7375 MEMB     66       POPC     C39      CTL2    -0.180000       12.0110           0
      7376 MEMB     66       POPC     H9X      HAL2     0.900000E-01   1.00800           0
      7377 MEMB     66       POPC     H9Y      HAL2     0.900000E-01   1.00800           0
      7378 MEMB     66       POPC     C310     CTL2    -0.180000       12.0110           0
      7379 MEMB     66       POPC     H10X     HAL2     0.900000E-01   1.00800           0
      7380 MEMB     66       POPC     H10Y     HAL2     0.900000E-01   1.00800           0
      7381 MEMB     66       POPC     C311     CTL2    -0.180000       12.0110           0
      7382 MEMB     66       POPC     H11X     HAL2     0.900000E-01   1.00800           0
      7383 MEMB     66       POPC     H11Y     HAL2     0.900000E-01   1.00800           0
      7384 MEMB     66       POPC     C312     CTL2    -0.180000       12.0110           0
      7385 MEMB     66       POPC     H12X     HAL2     0.900000E-01   1.00800           0
      7386 MEMB     66       POPC     H12Y     HAL2     0.900000E-01   1.00800           0
      7387 MEMB     66       POPC     C313     CTL2    -0.180000       12.0110           0
      7388 MEMB     66       POPC     H13X     HAL2     0.900000E-01   1.00800           0
      7389 MEMB     66       POPC     H13Y     HAL2     0.900000E-01   1.00800           0
      7390 MEMB     66       POPC     C314     CTL2    -0.180000       12.0110           0
      7391 MEMB     66       POPC     H14X     HAL2     0.900000E-01   1.00800           0
      7392 MEMB     66       POPC     H14Y     HAL2     0.900000E-01   1.00800           0
      7393 MEMB     66       POPC     C315     CTL2    -0.180000       12.0110           0
      7394 MEMB     66       POPC     H15X     HAL2     0.900000E-01   1.00800           0
      7395 MEMB     66       POPC     H15Y     HAL2     0.900000E-01   1.00800           0
      7396 MEMB     66       POPC     C316     CTL3    -0.270000       12.0110           0
      7397 MEMB     66       POPC     H16X     HAL3     0.900000E-01   1.00800           0
      7398 MEMB     66       POPC     H16Y     HAL3     0.900000E-01   1.00800           0
      7399 MEMB     66       POPC     H16Z     HAL3     0.900000E-01   1.00800           0
      7400 MEMB     67       SOPE     N        NH3L    -0.300000       14.0070           0
      7401 MEMB     67       SOPE     HN1      HCL      0.330000       1.00800           0
      7402 MEMB     67       SOPE     HN2      HCL      0.330000       1.00800           0
      7403 MEMB     67       SOPE     HN3      HCL      0.330000       1.00800           0
      7404 MEMB     67       SOPE     C12      CTL2     0.130000       12.0110           0
      7405 MEMB     67       SOPE     H12A     HAL2     0.900000E-01   1.00800           0
      7406 MEMB     67       SOPE     H12B     HAL2     0.900000E-01   1.00800           0
      7407 MEMB     67       SOPE     C11      CTL2    -0.800000E-01   12.0110           0
      7408 MEMB     67       SOPE     H11A     HAL2     0.900000E-01   1.00800           0
      7409 MEMB     67       SOPE     H11B     HAL2     0.900000E-01   1.00800           0
      7410 MEMB     67       SOPE     P        PL        1.50000       30.9740           0
      7411 MEMB     67       SOPE     O13      O2L     -0.780000       15.9994           0
      7412 MEMB     67       SOPE     O14      O2L     -0.780000       15.9994           0
      7413 MEMB     67       SOPE     O12      OSLP    -0.570000       15.9994           0
      7414 MEMB     67       SOPE     O11      OSLP    -0.570000       15.9994           0
      7415 MEMB     67       SOPE     C1       CTL2    -0.800000E-01   12.0110           0
      7416 MEMB     67       SOPE     HA       HAL2     0.900000E-01   1.00800           0
      7417 MEMB     67       SOPE     HB       HAL2     0.900000E-01   1.00800           0
      7418 MEMB     67       SOPE     C2       CTL1     0.170000       12.0110           0
      7419 MEMB     67       SOPE     HS       HAL1     0.900000E-01   1.00800           0
      7420 MEMB     67       SOPE     O21      OSL     -0.490000       15.9994           0
      7421 MEMB     67       SOPE     C21      CL       0.900000       12.0110           0
      7422 MEMB     67       SOPE     O22      OBL     -0.630000       15.9994           0
      7423 MEMB     67       SOPE     C22      CTL2    -0.220000       12.0110           0
      7424 MEMB     67       SOPE     H2R      HAL2     0.900000E-01   1.00800           0
      7425 MEMB     67       SOPE     H2S      HAL2     0.900000E-01   1.00800           0
      7426 MEMB     67       SOPE     C3       CTL2     0.800000E-01   12.0110           0
      7427 MEMB     67       SOPE     HX       HAL2     0.900000E-01   1.00800           0
      7428 MEMB     67       SOPE     HY       HAL2     0.900000E-01   1.00800           0
      7429 MEMB     67       SOPE     O31      OSL     -0.490000       15.9994           0
      7430 MEMB     67       SOPE     C31      CL       0.900000       12.0110           0
      7431 MEMB     67       SOPE     O32      OBL     -0.630000       15.9994           0
      7432 MEMB     67       SOPE     C32      CTL2    -0.220000       12.0110           0
      7433 MEMB     67       SOPE     H2X      HAL2     0.900000E-01   1.00800           0
      7434 MEMB     67       SOPE     H2Y      HAL2     0.900000E-01   1.00800           0
      7435 MEMB     67       SOPE     C23      CTL2    -0.180000       12.0110           0
      7436 MEMB     67       SOPE     H3R      HAL2     0.900000E-01   1.00800           0
      7437 MEMB     67       SOPE     H3S      HAL2     0.900000E-01   1.00800           0
      7438 MEMB     67       SOPE     C24      CTL2    -0.180000       12.0110           0
      7439 MEMB     67       SOPE     H4R      HAL2     0.900000E-01   1.00800           0
      7440 MEMB     67       SOPE     H4S      HAL2     0.900000E-01   1.00800           0
      7441 MEMB     67       SOPE     C25      CTL2    -0.180000       12.0110           0
      7442 MEMB     67       SOPE     H5R      HAL2     0.900000E-01   1.00800           0
      7443 MEMB     67       SOPE     H5S      HAL2     0.900000E-01   1.00800           0
      7444 MEMB     67       SOPE     C26      CTL2    -0.180000       12.0110           0
      7445 MEMB     67       SOPE     H6R      HAL2     0.900000E-01   1.00800           0
      7446 MEMB     67       SOPE     H6S      HAL2     0.900000E-01   1.00800           0
      7447 MEMB     67       SOPE     C27      CTL2    -0.180000       12.0110           0
      7448 MEMB     67       SOPE     H7R      HAL2     0.900000E-01   1.00800           0
      7449 MEMB     67       SOPE     H7S      HAL2     0.900000E-01   1.00800           0
      7450 MEMB     67       SOPE     C28      CTL2    -0.180000       12.0110           0
      7451 MEMB     67       SOPE     H8R      HAL2     0.900000E-01   1.00800           0
      7452 MEMB     67       SOPE     H8S      HAL2     0.900000E-01   1.00800           0
      7453 MEMB     67       SOPE     C29      CEL1    -0.150000       12.0110           0
      7454 MEMB     67       SOPE     H91      HEL1     0.150000       1.00800           0
      7455 MEMB     67       SOPE     C210     CEL1    -0.150000       12.0110           0
      7456 MEMB     67       SOPE     H101     HEL1     0.150000       1.00800           0
      7457 MEMB     67       SOPE     C211     CTL2    -0.180000       12.0110           0
      7458 MEMB     67       SOPE     H11R     HAL2     0.900000E-01   1.00800           0
      7459 MEMB     67       SOPE     H11S     HAL2     0.900000E-01   1.00800           0
      7460 MEMB     67       SOPE     C212     CTL2    -0.180000       12.0110           0
      7461 MEMB     67       SOPE     H12R     HAL2     0.900000E-01   1.00800           0
      7462 MEMB     67       SOPE     H12S     HAL2     0.900000E-01   1.00800           0
      7463 MEMB     67       SOPE     C213     CTL2    -0.180000       12.0110           0
      7464 MEMB     67       SOPE     H13R     HAL2     0.900000E-01   1.00800           0
      7465 MEMB     67       SOPE     H13S     HAL2     0.900000E-01   1.00800           0
      7466 MEMB     67       SOPE     C214     CTL2    -0.180000       12.0110           0
      7467 MEMB     67       SOPE     H14R     HAL2     0.900000E-01   1.00800           0
      7468 MEMB     67       SOPE     H14S     HAL2     0.900000E-01   1.00800           0
      7469 MEMB     67       SOPE     C215     CTL2    -0.180000       12.0110           0
      7470 MEMB     67       SOPE     H15R     HAL2     0.900000E-01   1.00800           0
      7471 MEMB     67       SOPE     H15S     HAL2     0.900000E-01   1.00800           0
      7472 MEMB     67       SOPE     C216     CTL2    -0.180000       12.0110           0
      7473 MEMB     67       SOPE     H16R     HAL2     0.900000E-01   1.00800           0
      7474 MEMB     67       SOPE     H16S     HAL2     0.900000E-01   1.00800           0
      7475 MEMB     67       SOPE     C217     CTL2    -0.180000       12.0110           0
      7476 MEMB     67       SOPE     H17R     HAL2     0.900000E-01   1.00800           0
      7477 MEMB     67       SOPE     H17S     HAL2     0.900000E-01   1.00800           0
      7478 MEMB     67       SOPE     C218     CTL3    -0.270000       12.0110           0
      7479 MEMB     67       SOPE     H18R     HAL3     0.900000E-01   1.00800           0
      7480 MEMB     67       SOPE     H18S     HAL3     0.900000E-01   1.00800           0
      7481 MEMB     67       SOPE     H18T     HAL3     0.900000E-01   1.00800           0
      7482 MEMB     67       SOPE     C33      CTL2    -0.180000       12.0110           0
      7483 MEMB     67       SOPE     H3X      HAL2     0.900000E-01   1.00800           0
      7484 MEMB     67       SOPE     H3Y      HAL2     0.900000E-01   1.00800           0
      7485 MEMB     67       SOPE     C34      CTL2    -0.180000       12.0110           0
      7486 MEMB     67       SOPE     H4X      HAL2     0.900000E-01   1.00800           0
      7487 MEMB     67       SOPE     H4Y      HAL2     0.900000E-01   1.00800           0
      7488 MEMB     67       SOPE     C35      CTL2    -0.180000       12.0110           0
      7489 MEMB     67       SOPE     H5X      HAL2     0.900000E-01   1.00800           0
      7490 MEMB     67       SOPE     H5Y      HAL2     0.900000E-01   1.00800           0
      7491 MEMB     67       SOPE     C36      CTL2    -0.180000       12.0110           0
      7492 MEMB     67       SOPE     H6X      HAL2     0.900000E-01   1.00800           0
      7493 MEMB     67       SOPE     H6Y      HAL2     0.900000E-01   1.00800           0
      7494 MEMB     67       SOPE     C37      CTL2    -0.180000       12.0110           0
      7495 MEMB     67       SOPE     H7X      HAL2     0.900000E-01   1.00800           0
      7496 MEMB     67       SOPE     H7Y      HAL2     0.900000E-01   1.00800           0
      7497 MEMB     67       SOPE     C38      CTL2    -0.180000       12.0110           0
      7498 MEMB     67       SOPE     H8X      HAL2     0.900000E-01   1.00800           0
      7499 MEMB     67       SOPE     H8Y      HAL2     0.900000E-01   1.00800           0
      7500 MEMB     67       SOPE     C39      CTL2    -0.180000       12.0110           0
      7501 MEMB     67       SOPE     H9X      HAL2     0.900000E-01   1.00800           0
      7502 MEMB     67       SOPE     H9Y      HAL2     0.900000E-01   1.00800           0
      7503 MEMB     67       SOPE     C310     CTL2    -0.180000       12.0110           0
      7504 MEMB     67       SOPE     H10X     HAL2     0.900000E-01   1.00800           0
      7505 MEMB     67       SOPE     H10Y     HAL2     0.900000E-01   1.00800           0
      7506 MEMB     67       SOPE     C311     CTL2    -0.180000       12.0110           0
      7507 MEMB     67       SOPE     H11X     HAL2     0.900000E-01   1.00800           0
      7508 MEMB     67       SOPE     H11Y     HAL2     0.900000E-01   1.00800           0
      7509 MEMB     67       SOPE     C312     CTL2    -0.180000       12.0110           0
      7510 MEMB     67       SOPE     H12X     HAL2     0.900000E-01   1.00800           0
      7511 MEMB     67       SOPE     H12Y     HAL2     0.900000E-01   1.00800           0
      7512 MEMB     67       SOPE     C313     CTL2    -0.180000       12.0110           0
      7513 MEMB     67       SOPE     H13X     HAL2     0.900000E-01   1.00800           0
      7514 MEMB     67       SOPE     H13Y     HAL2     0.900000E-01   1.00800           0
      7515 MEMB     67       SOPE     C314     CTL2    -0.180000       12.0110           0
      7516 MEMB     67       SOPE     H14X     HAL2     0.900000E-01   1.00800           0
      7517 MEMB     67       SOPE     H14Y     HAL2     0.900000E-01   1.00800           0
      7518 MEMB     67       SOPE     C315     CTL2    -0.180000       12.0110           0
      7519 MEMB     67       SOPE     H15X     HAL2     0.900000E-01   1.00800           0
      7520 MEMB     67       SOPE     H15Y     HAL2     0.900000E-01   1.00800           0
      7521 MEMB     67       SOPE     C316     CTL2    -0.180000       12.0110           0
      7522 MEMB     67       SOPE     H16X     HAL2     0.900000E-01   1.00800           0
      7523 MEMB     67       SOPE     H16Y     HAL2     0.900000E-01   1.00800           0
      7524 MEMB     67       SOPE     C317     CTL2    -0.180000       12.0110           0
      7525 MEMB     67       SOPE     H17X     HAL2     0.900000E-01   1.00800           0
      7526 MEMB     67       SOPE     H17Y     HAL2     0.900000E-01   1.00800           0
      7527 MEMB     67       SOPE     C318     CTL3    -0.270000       12.0110           0
      7528 MEMB     67       SOPE     H18X     HAL3     0.900000E-01   1.00800           0
      7529 MEMB     67       SOPE     H18Y     HAL3     0.900000E-01   1.00800           0
      7530 MEMB     67       SOPE     H18Z     HAL3     0.900000E-01   1.00800           0
      7531 MEMB     68       CHL1     C3       CRL1     0.140000       12.0110           0
      7532 MEMB     68       CHL1     H3       HGA1     0.900000E-01   1.00800           0
      7533 MEMB     68       CHL1     O3       OHL     -0.660000       15.9994           0
      7534 MEMB     68       CHL1     H3'      HOL      0.430000       1.00800           0
      7535 MEMB     68       CHL1     C4       CRL2    -0.180000       12.0110           0
      7536 MEMB     68       CHL1     H4A      HGA2     0.900000E-01   1.00800           0
      7537 MEMB     68       CHL1     H4B      HGA2     0.900000E-01   1.00800           0
      7538 MEMB     68       CHL1     C5       CEL1      0.00000       12.0110           0
      7539 MEMB     68       CHL1     C6       CEL1    -0.150000       12.0110           0
      7540 MEMB     68       CHL1     H6       HEL1     0.150000       1.00800           0
      7541 MEMB     68       CHL1     C7       CRL2    -0.180000       12.0110           0
      7542 MEMB     68       CHL1     H7A      HGA2     0.900000E-01   1.00800           0
      7543 MEMB     68       CHL1     H7B      HGA2     0.900000E-01   1.00800           0
      7544 MEMB     68       CHL1     C8       CRL1    -0.900000E-01   12.0110           0
      7545 MEMB     68       CHL1     H8       HGA1     0.900000E-01   1.00800           0
      7546 MEMB     68       CHL1     C14      CRL1    -0.900000E-01   12.0110           0
      7547 MEMB     68       CHL1     H14      HGA1     0.900000E-01   1.00800           0
      7548 MEMB     68       CHL1     C15      CRL2    -0.180000       12.0110           0
      7549 MEMB     68       CHL1     H15A     HGA2     0.900000E-01   1.00800           0
      7550 MEMB     68       CHL1     H15B     HGA2     0.900000E-01   1.00800           0
      7551 MEMB     68       CHL1     C16      CRL2    -0.180000       12.0110           0
      7552 MEMB     68       CHL1     H16A     HGA2     0.900000E-01   1.00800           0
      7553 MEMB     68       CHL1     H16B     HGA2     0.900000E-01   1.00800           0
      7554 MEMB     68       CHL1     C17      CRL1    -0.900000E-01   12.0110           0
      7555 MEMB     68       CHL1     H17      HGA1     0.900000E-01   1.00800           0
      7556 MEMB     68       CHL1     C13      CRL1      0.00000       12.0110           0
      7557 MEMB     68       CHL1     C18      CTL3    -0.270000       12.0110           0
      7558 MEMB     68       CHL1     H18A     HAL3     0.900000E-01   1.00800           0
      7559 MEMB     68       CHL1     H18B     HAL3     0.900000E-01   1.00800           0
      7560 MEMB     68       CHL1     H18C     HAL3     0.900000E-01   1.00800           0
      7561 MEMB     68       CHL1     C12      CRL2    -0.180000       12.0110           0
      7562 MEMB     68       CHL1     H12A     HGA2     0.900000E-01   1.00800           0
      7563 MEMB     68       CHL1     H12B     HGA2     0.900000E-01   1.00800           0
      7564 MEMB     68       CHL1     C11      CRL2    -0.180000       12.0110           0
      7565 MEMB     68       CHL1     H11A     HGA2     0.900000E-01   1.00800           0
      7566 MEMB     68       CHL1     H11B     HGA2     0.900000E-01   1.00800           0
      7567 MEMB     68       CHL1     C9       CRL1    -0.900000E-01   12.0110           0
      7568 MEMB     68       CHL1     H9       HGA1     0.900000E-01   1.00800           0
      7569 MEMB     68       CHL1     C10      CRL1      0.00000       12.0110           0
      7570 MEMB     68       CHL1     C19      CTL3    -0.270000       12.0110           0
      7571 MEMB     68       CHL1     H19A     HAL3     0.900000E-01   1.00800           0
      7572 MEMB     68       CHL1     H19B     HAL3     0.900000E-01   1.00800           0
      7573 MEMB     68       CHL1     H19C     HAL3     0.900000E-01   1.00800           0
      7574 MEMB     68       CHL1     C1       CRL2    -0.180000       12.0110           0
      7575 MEMB     68       CHL1     H1A      HGA2     0.900000E-01   1.00800           0
      7576 MEMB     68       CHL1     H1B      HGA2     0.900000E-01   1.00800           0
      7577 MEMB     68       CHL1     C2       CRL2    -0.180000       12.0110           0
      7578 MEMB     68       CHL1     H2A      HGA2     0.900000E-01   1.00800           0
      7579 MEMB     68       CHL1     H2B      HGA2     0.900000E-01   1.00800           0
      7580 MEMB     68       CHL1     C20      CTL1    -0.900000E-01   12.0110           0
      7581 MEMB     68       CHL1     H20      HAL1     0.900000E-01   1.00800           0
      7582 MEMB     68       CHL1     C21      CTL3    -0.270000       12.0110           0
      7583 MEMB     68       CHL1     H21A     HAL3     0.900000E-01   1.00800           0
      7584 MEMB     68       CHL1     H21B     HAL3     0.900000E-01   1.00800           0
      7585 MEMB     68       CHL1     H21C     HAL3     0.900000E-01   1.00800           0
      7586 MEMB     68       CHL1     C22      CTL2    -0.180000       12.0110           0
      7587 MEMB     68       CHL1     H22A     HAL2     0.900000E-01   1.00800           0
      7588 MEMB     68       CHL1     H22B     HAL2     0.900000E-01   1.00800           0
      7589 MEMB     68       CHL1     C23      CTL2    -0.180000       12.0110           0
      7590 MEMB     68       CHL1     H23A     HAL2     0.900000E-01   1.00800           0
      7591 MEMB     68       CHL1     H23B     HAL2     0.900000E-01   1.00800           0
      7592 MEMB     68       CHL1     C24      CTL2    -0.180000       12.0110           0
      7593 MEMB     68       CHL1     H24A     HAL2     0.900000E-01   1.00800           0
      7594 MEMB     68       CHL1     H24B     HAL2     0.900000E-01   1.00800           0
      7595 MEMB     68       CHL1     C25      CTL1    -0.900000E-01   12.0110           0
      7596 MEMB     68       CHL1     H25      HAL1     0.900000E-01   1.00800           0
      7597 MEMB     68       CHL1     C26      CTL3    -0.270000       12.0110           0
      7598 MEMB     68       CHL1     H26A     HAL3     0.900000E-01   1.00800           0
      7599 MEMB     68       CHL1     H26B     HAL3     0.900000E-01   1.00800           0
      7600 MEMB     68       CHL1     H26C     HAL3     0.900000E-01   1.00800           0
      7601 MEMB     68       CHL1     C27      CTL3    -0.270000       12.0110           0
      7602 MEMB     68       CHL1     H27A     HAL3     0.900000E-01   1.00800           0
      7603 MEMB     68       CHL1     H27B     HAL3     0.900000E-01   1.00800           0
      7604 MEMB     68       CHL1     H27C     HAL3     0.900000E-01   1.00800           0
      7605 MEMB     69       SAPC     N        NTL     -0.600000       14.0070           0
      7606 MEMB     69       SAPC     C12      CTL2    -0.100000       12.0110           0
      7607 MEMB     69       SAPC     H12A     HL       0.250000       1.00800           0
      7608 MEMB     69       SAPC     H12B     HL       0.250000       1.00800           0
      7609 MEMB     69       SAPC     C13      CTL5    -0.350000       12.0110           0
      7610 MEMB     69       SAPC     H13A     HL       0.250000       1.00800           0
      7611 MEMB     69       SAPC     H13B     HL       0.250000       1.00800           0
      7612 MEMB     69       SAPC     H13C     HL       0.250000       1.00800           0
      7613 MEMB     69       SAPC     C14      CTL5    -0.350000       12.0110           0
      7614 MEMB     69       SAPC     H14A     HL       0.250000       1.00800           0
      7615 MEMB     69       SAPC     H14B     HL       0.250000       1.00800           0
      7616 MEMB     69       SAPC     H14C     HL       0.250000       1.00800           0
      7617 MEMB     69       SAPC     C15      CTL5    -0.350000       12.0110           0
      7618 MEMB     69       SAPC     H15A     HL       0.250000       1.00800           0
      7619 MEMB     69       SAPC     H15B     HL       0.250000       1.00800           0
      7620 MEMB     69       SAPC     H15C     HL       0.250000       1.00800           0
      7621 MEMB     69       SAPC     C11      CTL2    -0.800000E-01   12.0110           0
      7622 MEMB     69       SAPC     H11A     HAL2     0.900000E-01   1.00800           0
      7623 MEMB     69       SAPC     H11B     HAL2     0.900000E-01   1.00800           0
      7624 MEMB     69       SAPC     P        PL        1.50000       30.9740           0
      7625 MEMB     69       SAPC     O13      O2L     -0.780000       15.9994           0
      7626 MEMB     69       SAPC     O14      O2L     -0.780000       15.9994           0
      7627 MEMB     69       SAPC     O12      OSLP    -0.570000       15.9994           0
      7628 MEMB     69       SAPC     O11      OSLP    -0.570000       15.9994           0
      7629 MEMB     69       SAPC     C1       CTL2    -0.800000E-01   12.0110           0
      7630 MEMB     69       SAPC     HA       HAL2     0.900000E-01   1.00800           0
      7631 MEMB     69       SAPC     HB       HAL2     0.900000E-01   1.00800           0
      7632 MEMB     69       SAPC     C2       CTL1     0.170000       12.0110           0
      7633 MEMB     69       SAPC     HS       HAL1     0.900000E-01   1.00800           0
      7634 MEMB     69       SAPC     O21      OSL     -0.490000       15.9994           0
      7635 MEMB     69       SAPC     C21      CL       0.900000       12.0110           0
      7636 MEMB     69       SAPC     O22      OBL     -0.630000       15.9994           0
      7637 MEMB     69       SAPC     C22      CTL2    -0.220000       12.0110           0
      7638 MEMB     69       SAPC     H2R      HAL2     0.900000E-01   1.00800           0
      7639 MEMB     69       SAPC     H2S      HAL2     0.900000E-01   1.00800           0
      7640 MEMB     69       SAPC     C3       CTL2     0.800000E-01   12.0110           0
      7641 MEMB     69       SAPC     HX       HAL2     0.900000E-01   1.00800           0
      7642 MEMB     69       SAPC     HY       HAL2     0.900000E-01   1.00800           0
      7643 MEMB     69       SAPC     O31      OSL     -0.490000       15.9994           0
      7644 MEMB     69       SAPC     C31      CL       0.900000       12.0110           0
      7645 MEMB     69       SAPC     O32      OBL     -0.630000       15.9994           0
      7646 MEMB     69       SAPC     C32      CTL2    -0.220000       12.0110           0
      7647 MEMB     69       SAPC     H2X      HAL2     0.900000E-01   1.00800           0
      7648 MEMB     69       SAPC     H2Y      HAL2     0.900000E-01   1.00800           0
      7649 MEMB     69       SAPC     C23      CTL2    -0.180000       12.0110           0
      7650 MEMB     69       SAPC     H3R      HAL2     0.900000E-01   1.00800           0
      7651 MEMB     69       SAPC     H3S      HAL2     0.900000E-01   1.00800           0
      7652 MEMB     69       SAPC     C24      CTL2    -0.180000       12.0110           0
      7653 MEMB     69       SAPC     H4R      HAL2     0.900000E-01   1.00800           0
      7654 MEMB     69       SAPC     H4S      HAL2     0.900000E-01   1.00800           0
      7655 MEMB     69       SAPC     C25      CEL1    -0.150000       12.0110           0
      7656 MEMB     69       SAPC     H5R      HEL1     0.150000       1.00800           0
      7657 MEMB     69       SAPC     C26      CEL1    -0.150000       12.0110           0
      7658 MEMB     69       SAPC     H6R      HEL1     0.150000       1.00800           0
      7659 MEMB     69       SAPC     C27      CTL2    -0.180000       12.0110           0
      7660 MEMB     69       SAPC     H7R      HAL2     0.900000E-01   1.00800           0
      7661 MEMB     69       SAPC     H7S      HAL2     0.900000E-01   1.00800           0
      7662 MEMB     69       SAPC     C28      CEL1    -0.150000       12.0110           0
      7663 MEMB     69       SAPC     H8R      HEL1     0.150000       1.00800           0
      7664 MEMB     69       SAPC     C29      CEL1    -0.150000       12.0110           0
      7665 MEMB     69       SAPC     H9R      HEL1     0.150000       1.00800           0
      7666 MEMB     69       SAPC     C210     CTL2    -0.180000       12.0110           0
      7667 MEMB     69       SAPC     H10R     HAL2     0.900000E-01   1.00800           0
      7668 MEMB     69       SAPC     H10S     HAL2     0.900000E-01   1.00800           0
      7669 MEMB     69       SAPC     C211     CEL1    -0.150000       12.0110           0
      7670 MEMB     69       SAPC     H11R     HEL1     0.150000       1.00800           0
      7671 MEMB     69       SAPC     C212     CEL1    -0.150000       12.0110           0
      7672 MEMB     69       SAPC     H12R     HEL1     0.150000       1.00800           0
      7673 MEMB     69       SAPC     C213     CTL2    -0.180000       12.0110           0
      7674 MEMB     69       SAPC     H13R     HAL2     0.900000E-01   1.00800           0
      7675 MEMB     69       SAPC     H13S     HAL2     0.900000E-01   1.00800           0
      7676 MEMB     69       SAPC     C214     CEL1    -0.150000       12.0110           0
      7677 MEMB     69       SAPC     H14R     HEL1     0.150000       1.00800           0
      7678 MEMB     69       SAPC     C215     CEL1    -0.150000       12.0110           0
      7679 MEMB     69       SAPC     H15R     HEL1     0.150000       1.00800           0
      7680 MEMB     69       SAPC     C216     CTL2    -0.180000       12.0110           0
      7681 MEMB     69       SAPC     H16R     HAL2     0.900000E-01   1.00800           0
      7682 MEMB     69       SAPC     H16S     HAL2     0.900000E-01   1.00800           0
      7683 MEMB     69       SAPC     C217     CTL2    -0.180000       12.0110           0
      7684 MEMB     69       SAPC     H17R     HAL2     0.900000E-01   1.00800           0
      7685 MEMB     69       SAPC     H17S     HAL2     0.900000E-01   1.00800           0
      7686 MEMB     69       SAPC     C218     CTL2    -0.270000       12.0110           0
      7687 MEMB     69       SAPC     H18R     HAL2     0.900000E-01   1.00800           0
      7688 MEMB     69       SAPC     H18S     HAL2     0.900000E-01   1.00800           0
      7689 MEMB     69       SAPC     C219     CTL2    -0.180000       12.0110           0
      7690 MEMB     69       SAPC     H19R     HAL2     0.900000E-01   1.00800           0
      7691 MEMB     69       SAPC     H19S     HAL2     0.900000E-01   1.00800           0
      7692 MEMB     69       SAPC     C220     CTL3    -0.180000       12.0110           0
      7693 MEMB     69       SAPC     H20R     HAL3     0.900000E-01   1.00800           0
      7694 MEMB     69       SAPC     H20S     HAL3     0.900000E-01   1.00800           0
      7695 MEMB     69       SAPC     H20T     HAL3     0.900000E-01   1.00800           0
      7696 MEMB     69       SAPC     C33      CTL2    -0.180000       12.0110           0
      7697 MEMB     69       SAPC     H3X      HAL2     0.900000E-01   1.00800           0
      7698 MEMB     69       SAPC     H3Y      HAL2     0.900000E-01   1.00800           0
      7699 MEMB     69       SAPC     C34      CTL2    -0.180000       12.0110           0
      7700 MEMB     69       SAPC     H4X      HAL2     0.900000E-01   1.00800           0
      7701 MEMB     69       SAPC     H4Y      HAL2     0.900000E-01   1.00800           0
      7702 MEMB     69       SAPC     C35      CTL2    -0.180000       12.0110           0
      7703 MEMB     69       SAPC     H5X      HAL2     0.900000E-01   1.00800           0
      7704 MEMB     69       SAPC     H5Y      HAL2     0.900000E-01   1.00800           0
      7705 MEMB     69       SAPC     C36      CTL2    -0.180000       12.0110           0
      7706 MEMB     69       SAPC     H6X      HAL2     0.900000E-01   1.00800           0
      7707 MEMB     69       SAPC     H6Y      HAL2     0.900000E-01   1.00800           0
      7708 MEMB     69       SAPC     C37      CTL2    -0.180000       12.0110           0
      7709 MEMB     69       SAPC     H7X      HAL2     0.900000E-01   1.00800           0
      7710 MEMB     69       SAPC     H7Y      HAL2     0.900000E-01   1.00800           0
      7711 MEMB     69       SAPC     C38      CTL2    -0.180000       12.0110           0
      7712 MEMB     69       SAPC     H8X      HAL2     0.900000E-01   1.00800           0
      7713 MEMB     69       SAPC     H8Y      HAL2     0.900000E-01   1.00800           0
      7714 MEMB     69       SAPC     C39      CTL2    -0.180000       12.0110           0
      7715 MEMB     69       SAPC     H9X      HAL2     0.900000E-01   1.00800           0
      7716 MEMB     69       SAPC     H9Y      HAL2     0.900000E-01   1.00800           0
      7717 MEMB     69       SAPC     C310     CTL2    -0.180000       12.0110           0
      7718 MEMB     69       SAPC     H10X     HAL2     0.900000E-01   1.00800           0
      7719 MEMB     69       SAPC     H10Y     HAL2     0.900000E-01   1.00800           0
      7720 MEMB     69       SAPC     C311     CTL2    -0.180000       12.0110           0
      7721 MEMB     69       SAPC     H11X     HAL2     0.900000E-01   1.00800           0
      7722 MEMB     69       SAPC     H11Y     HAL2     0.900000E-01   1.00800           0
      7723 MEMB     69       SAPC     C312     CTL2    -0.180000       12.0110           0
      7724 MEMB     69       SAPC     H12X     HAL2     0.900000E-01   1.00800           0
      7725 MEMB     69       SAPC     H12Y     HAL2     0.900000E-01   1.00800           0
      7726 MEMB     69       SAPC     C313     CTL2    -0.180000       12.0110           0
      7727 MEMB     69       SAPC     H13X     HAL2     0.900000E-01   1.00800           0
      7728 MEMB     69       SAPC     H13Y     HAL2     0.900000E-01   1.00800           0
      7729 MEMB     69       SAPC     C314     CTL2    -0.180000       12.0110           0
      7730 MEMB     69       SAPC     H14X     HAL2     0.900000E-01   1.00800           0
      7731 MEMB     69       SAPC     H14Y     HAL2     0.900000E-01   1.00800           0
      7732 MEMB     69       SAPC     C315     CTL2    -0.180000       12.0110           0
      7733 MEMB     69       SAPC     H15X     HAL2     0.900000E-01   1.00800           0
      7734 MEMB     69       SAPC     H15Y     HAL2     0.900000E-01   1.00800           0
      7735 MEMB     69       SAPC     C316     CTL2    -0.180000       12.0110           0
      7736 MEMB     69       SAPC     H16X     HAL2     0.900000E-01   1.00800           0
      7737 MEMB     69       SAPC     H16Y     HAL2     0.900000E-01   1.00800           0
      7738 MEMB     69       SAPC     C317     CTL2    -0.180000       12.0110           0
      7739 MEMB     69       SAPC     H17X     HAL2     0.900000E-01   1.00800           0
      7740 MEMB     69       SAPC     H17Y     HAL2     0.900000E-01   1.00800           0
      7741 MEMB     69       SAPC     C318     CTL3    -0.270000       12.0110           0
      7742 MEMB     69       SAPC     H18X     HAL3     0.900000E-01   1.00800           0
      7743 MEMB     69       SAPC     H18Y     HAL3     0.900000E-01   1.00800           0
      7744 MEMB     69       SAPC     H18Z     HAL3     0.900000E-01   1.00800           0
      7745 MEMB     70       SAPE     N        NH3L    -0.300000       14.0070           0
      7746 MEMB     70       SAPE     HN1      HCL      0.330000       1.00800           0
      7747 MEMB     70       SAPE     HN2      HCL      0.330000       1.00800           0
      7748 MEMB     70       SAPE     HN3      HCL      0.330000       1.00800           0
      7749 MEMB     70       SAPE     C12      CTL2     0.130000       12.0110           0
      7750 MEMB     70       SAPE     H12A     HAL2     0.900000E-01   1.00800           0
      7751 MEMB     70       SAPE     H12B     HAL2     0.900000E-01   1.00800           0
      7752 MEMB     70       SAPE     C11      CTL2    -0.800000E-01   12.0110           0
      7753 MEMB     70       SAPE     H11A     HAL2     0.900000E-01   1.00800           0
      7754 MEMB     70       SAPE     H11B     HAL2     0.900000E-01   1.00800           0
      7755 MEMB     70       SAPE     P        PL        1.50000       30.9740           0
      7756 MEMB     70       SAPE     O13      O2L     -0.780000       15.9994           0
      7757 MEMB     70       SAPE     O14      O2L     -0.780000       15.9994           0
      7758 MEMB     70       SAPE     O12      OSLP    -0.570000       15.9994           0
      7759 MEMB     70       SAPE     O11      OSLP    -0.570000       15.9994           0
      7760 MEMB     70       SAPE     C1       CTL2    -0.800000E-01   12.0110           0
      7761 MEMB     70       SAPE     HA       HAL2     0.900000E-01   1.00800           0
      7762 MEMB     70       SAPE     HB       HAL2     0.900000E-01   1.00800           0
      7763 MEMB     70       SAPE     C2       CTL1     0.170000       12.0110           0
      7764 MEMB     70       SAPE     HS       HAL1     0.900000E-01   1.00800           0
      7765 MEMB     70       SAPE     O21      OSL     -0.490000       15.9994           0
      7766 MEMB     70       SAPE     C21      CL       0.900000       12.0110           0
      7767 MEMB     70       SAPE     O22      OBL     -0.630000       15.9994           0
      7768 MEMB     70       SAPE     C22      CTL2    -0.220000       12.0110           0
      7769 MEMB     70       SAPE     H2R      HAL2     0.900000E-01   1.00800           0
      7770 MEMB     70       SAPE     H2S      HAL2     0.900000E-01   1.00800           0
      7771 MEMB     70       SAPE     C3       CTL2     0.800000E-01   12.0110           0
      7772 MEMB     70       SAPE     HX       HAL2     0.900000E-01   1.00800           0
      7773 MEMB     70       SAPE     HY       HAL2     0.900000E-01   1.00800           0
      7774 MEMB     70       SAPE     O31      OSL     -0.490000       15.9994           0
      7775 MEMB     70       SAPE     C31      CL       0.900000       12.0110           0
      7776 MEMB     70       SAPE     O32      OBL     -0.630000       15.9994           0
      7777 MEMB     70       SAPE     C32      CTL2    -0.220000       12.0110           0
      7778 MEMB     70       SAPE     H2X      HAL2     0.900000E-01   1.00800           0
      7779 MEMB     70       SAPE     H2Y      HAL2     0.900000E-01   1.00800           0
      7780 MEMB     70       SAPE     C23      CTL2    -0.180000       12.0110           0
      7781 MEMB     70       SAPE     H3R      HAL2     0.900000E-01   1.00800           0
      7782 MEMB     70       SAPE     H3S      HAL2     0.900000E-01   1.00800           0
      7783 MEMB     70       SAPE     C24      CTL2    -0.180000       12.0110           0
      7784 MEMB     70       SAPE     H4R      HAL2     0.900000E-01   1.00800           0
      7785 MEMB     70       SAPE     H4S      HAL2     0.900000E-01   1.00800           0
      7786 MEMB     70       SAPE     C25      CEL1    -0.150000       12.0110           0
      7787 MEMB     70       SAPE     H5R      HEL1     0.150000       1.00800           0
      7788 MEMB     70       SAPE     C26      CEL1    -0.150000       12.0110           0
      7789 MEMB     70       SAPE     H6R      HEL1     0.150000       1.00800           0
      7790 MEMB     70       SAPE     C27      CTL2    -0.180000       12.0110           0
      7791 MEMB     70       SAPE     H7R      HAL2     0.900000E-01   1.00800           0
      7792 MEMB     70       SAPE     H7S      HAL2     0.900000E-01   1.00800           0
      7793 MEMB     70       SAPE     C28      CEL1    -0.150000       12.0110           0
      7794 MEMB     70       SAPE     H8R      HEL1     0.150000       1.00800           0
      7795 MEMB     70       SAPE     C29      CEL1    -0.150000       12.0110           0
      7796 MEMB     70       SAPE     H9R      HEL1     0.150000       1.00800           0
      7797 MEMB     70       SAPE     C210     CTL2    -0.180000       12.0110           0
      7798 MEMB     70       SAPE     H10R     HAL2     0.900000E-01   1.00800           0
      7799 MEMB     70       SAPE     H10S     HAL2     0.900000E-01   1.00800           0
      7800 MEMB     70       SAPE     C211     CEL1    -0.150000       12.0110           0
      7801 MEMB     70       SAPE     H11R     HEL1     0.150000       1.00800           0
      7802 MEMB     70       SAPE     C212     CEL1    -0.150000       12.0110           0
      7803 MEMB     70       SAPE     H12R     HEL1     0.150000       1.00800           0
      7804 MEMB     70       SAPE     C213     CTL2    -0.180000       12.0110           0
      7805 MEMB     70       SAPE     H13R     HAL2     0.900000E-01   1.00800           0
      7806 MEMB     70       SAPE     H13S     HAL2     0.900000E-01   1.00800           0
      7807 MEMB     70       SAPE     C214     CEL1    -0.150000       12.0110           0
      7808 MEMB     70       SAPE     H14R     HEL1     0.150000       1.00800           0
      7809 MEMB     70       SAPE     C215     CEL1    -0.150000       12.0110           0
      7810 MEMB     70       SAPE     H15R     HEL1     0.150000       1.00800           0
      7811 MEMB     70       SAPE     C216     CTL2    -0.180000       12.0110           0
      7812 MEMB     70       SAPE     H16R     HAL2     0.900000E-01   1.00800           0
      7813 MEMB     70       SAPE     H16S     HAL2     0.900000E-01   1.00800           0
      7814 MEMB     70       SAPE     C217     CTL2    -0.180000       12.0110           0
      7815 MEMB     70       SAPE     H17R     HAL2     0.900000E-01   1.00800           0
      7816 MEMB     70       SAPE     H17S     HAL2     0.900000E-01   1.00800           0
      7817 MEMB     70       SAPE     C218     CTL2    -0.180000       12.0110           0
      7818 MEMB     70       SAPE     H18R     HAL2     0.900000E-01   1.00800           0
      7819 MEMB     70       SAPE     H18S     HAL2     0.900000E-01   1.00800           0
      7820 MEMB     70       SAPE     C219     CTL2    -0.180000       12.0110           0
      7821 MEMB     70       SAPE     H19R     HAL2     0.900000E-01   1.00800           0
      7822 MEMB     70       SAPE     H19S     HAL2     0.900000E-01   1.00800           0
      7823 MEMB     70       SAPE     C220     CTL3    -0.270000       12.0110           0
      7824 MEMB     70       SAPE     H20R     HAL3     0.900000E-01   1.00800           0
      7825 MEMB     70       SAPE     H20S     HAL3     0.900000E-01   1.00800           0
      7826 MEMB     70       SAPE     H20T     HAL3     0.900000E-01   1.00800           0
      7827 MEMB     70       SAPE     C33      CTL2    -0.180000       12.0110           0
      7828 MEMB     70       SAPE     H3X      HAL2     0.900000E-01   1.00800           0
      7829 MEMB     70       SAPE     H3Y      HAL2     0.900000E-01   1.00800           0
      7830 MEMB     70       SAPE     C34      CTL2    -0.180000       12.0110           0
      7831 MEMB     70       SAPE     H4X      HAL2     0.900000E-01   1.00800           0
      7832 MEMB     70       SAPE     H4Y      HAL2     0.900000E-01   1.00800           0
      7833 MEMB     70       SAPE     C35      CTL2    -0.180000       12.0110           0
      7834 MEMB     70       SAPE     H5X      HAL2     0.900000E-01   1.00800           0
      7835 MEMB     70       SAPE     H5Y      HAL2     0.900000E-01   1.00800           0
      7836 MEMB     70       SAPE     C36      CTL2    -0.180000       12.0110           0
      7837 MEMB     70       SAPE     H6X      HAL2     0.900000E-01   1.00800           0
      7838 MEMB     70       SAPE     H6Y      HAL2     0.900000E-01   1.00800           0
      7839 MEMB     70       SAPE     C37      CTL2    -0.180000       12.0110           0
      7840 MEMB     70       SAPE     H7X      HAL2     0.900000E-01   1.00800           0
      7841 MEMB     70       SAPE     H7Y      HAL2     0.900000E-01   1.00800           0
      7842 MEMB     70       SAPE     C38      CTL2    -0.180000       12.0110           0
      7843 MEMB     70       SAPE     H8X      HAL2     0.900000E-01   1.00800           0
      7844 MEMB     70       SAPE     H8Y      HAL2     0.900000E-01   1.00800           0
      7845 MEMB     70       SAPE     C39      CTL2    -0.180000       12.0110           0
      7846 MEMB     70       SAPE     H9X      HAL2     0.900000E-01   1.00800           0
      7847 MEMB     70       SAPE     H9Y      HAL2     0.900000E-01   1.00800           0
      7848 MEMB     70       SAPE     C310     CTL2    -0.180000       12.0110           0
      7849 MEMB     70       SAPE     H10X     HAL2     0.900000E-01   1.00800           0
      7850 MEMB     70       SAPE     H10Y     HAL2     0.900000E-01   1.00800           0
      7851 MEMB     70       SAPE     C311     CTL2    -0.180000       12.0110           0
      7852 MEMB     70       SAPE     H11X     HAL2     0.900000E-01   1.00800           0
      7853 MEMB     70       SAPE     H11Y     HAL2     0.900000E-01   1.00800           0
      7854 MEMB     70       SAPE     C312     CTL2    -0.180000       12.0110           0
      7855 MEMB     70       SAPE     H12X     HAL2     0.900000E-01   1.00800           0
      7856 MEMB     70       SAPE     H12Y     HAL2     0.900000E-01   1.00800           0
      7857 MEMB     70       SAPE     C313     CTL2    -0.180000       12.0110           0
      7858 MEMB     70       SAPE     H13X     HAL2     0.900000E-01   1.00800           0
      7859 MEMB     70       SAPE     H13Y     HAL2     0.900000E-01   1.00800           0
      7860 MEMB     70       SAPE     C314     CTL2    -0.180000       12.0110           0
      7861 MEMB     70       SAPE     H14X     HAL2     0.900000E-01   1.00800           0
      7862 MEMB     70       SAPE     H14Y     HAL2     0.900000E-01   1.00800           0
      7863 MEMB     70       SAPE     C315     CTL2    -0.180000       12.0110           0
      7864 MEMB     70       SAPE     H15X     HAL2     0.900000E-01   1.00800           0
      7865 MEMB     70       SAPE     H15Y     HAL2     0.900000E-01   1.00800           0
      7866 MEMB     70       SAPE     C316     CTL2    -0.180000       12.0110           0
      7867 MEMB     70       SAPE     H16X     HAL2     0.900000E-01   1.00800           0
      7868 MEMB     70       SAPE     H16Y     HAL2     0.900000E-01   1.00800           0
      7869 MEMB     70       SAPE     C317     CTL2    -0.180000       12.0110           0
      7870 MEMB     70       SAPE     H17X     HAL2     0.900000E-01   1.00800           0
      7871 MEMB     70       SAPE     H17Y     HAL2     0.900000E-01   1.00800           0
      7872 MEMB     70       SAPE     C318     CTL3    -0.270000       12.0110           0
      7873 MEMB     70       SAPE     H18X     HAL3     0.900000E-01   1.00800           0
      7874 MEMB     70       SAPE     H18Y     HAL3     0.900000E-01   1.00800           0
      7875 MEMB     70       SAPE     H18Z     HAL3     0.900000E-01   1.00800           0
      7876 MEMB     71       SAPE     N        NH3L    -0.300000       14.0070           0
      7877 MEMB     71       SAPE     HN1      HCL      0.330000       1.00800           0
      7878 MEMB     71       SAPE     HN2      HCL      0.330000       1.00800           0
      7879 MEMB     71       SAPE     HN3      HCL      0.330000       1.00800           0
      7880 MEMB     71       SAPE     C12      CTL2     0.130000       12.0110           0
      7881 MEMB     71       SAPE     H12A     HAL2     0.900000E-01   1.00800           0
      7882 MEMB     71       SAPE     H12B     HAL2     0.900000E-01   1.00800           0
      7883 MEMB     71       SAPE     C11      CTL2    -0.800000E-01   12.0110           0
      7884 MEMB     71       SAPE     H11A     HAL2     0.900000E-01   1.00800           0
      7885 MEMB     71       SAPE     H11B     HAL2     0.900000E-01   1.00800           0
      7886 MEMB     71       SAPE     P        PL        1.50000       30.9740           0
      7887 MEMB     71       SAPE     O13      O2L     -0.780000       15.9994           0
      7888 MEMB     71       SAPE     O14      O2L     -0.780000       15.9994           0
      7889 MEMB     71       SAPE     O12      OSLP    -0.570000       15.9994           0
      7890 MEMB     71       SAPE     O11      OSLP    -0.570000       15.9994           0
      7891 MEMB     71       SAPE     C1       CTL2    -0.800000E-01   12.0110           0
      7892 MEMB     71       SAPE     HA       HAL2     0.900000E-01   1.00800           0
      7893 MEMB     71       SAPE     HB       HAL2     0.900000E-01   1.00800           0
      7894 MEMB     71       SAPE     C2       CTL1     0.170000       12.0110           0
      7895 MEMB     71       SAPE     HS       HAL1     0.900000E-01   1.00800           0
      7896 MEMB     71       SAPE     O21      OSL     -0.490000       15.9994           0
      7897 MEMB     71       SAPE     C21      CL       0.900000       12.0110           0
      7898 MEMB     71       SAPE     O22      OBL     -0.630000       15.9994           0
      7899 MEMB     71       SAPE     C22      CTL2    -0.220000       12.0110           0
      7900 MEMB     71       SAPE     H2R      HAL2     0.900000E-01   1.00800           0
      7901 MEMB     71       SAPE     H2S      HAL2     0.900000E-01   1.00800           0
      7902 MEMB     71       SAPE     C3       CTL2     0.800000E-01   12.0110           0
      7903 MEMB     71       SAPE     HX       HAL2     0.900000E-01   1.00800           0
      7904 MEMB     71       SAPE     HY       HAL2     0.900000E-01   1.00800           0
      7905 MEMB     71       SAPE     O31      OSL     -0.490000       15.9994           0
      7906 MEMB     71       SAPE     C31      CL       0.900000       12.0110           0
      7907 MEMB     71       SAPE     O32      OBL     -0.630000       15.9994           0
      7908 MEMB     71       SAPE     C32      CTL2    -0.220000       12.0110           0
      7909 MEMB     71       SAPE     H2X      HAL2     0.900000E-01   1.00800           0
      7910 MEMB     71       SAPE     H2Y      HAL2     0.900000E-01   1.00800           0
      7911 MEMB     71       SAPE     C23      CTL2    -0.180000       12.0110           0
      7912 MEMB     71       SAPE     H3R      HAL2     0.900000E-01   1.00800           0
      7913 MEMB     71       SAPE     H3S      HAL2     0.900000E-01   1.00800           0
      7914 MEMB     71       SAPE     C24      CTL2    -0.180000       12.0110           0
      7915 MEMB     71       SAPE     H4R      HAL2     0.900000E-01   1.00800           0
      7916 MEMB     71       SAPE     H4S      HAL2     0.900000E-01   1.00800           0
      7917 MEMB     71       SAPE     C25      CEL1    -0.150000       12.0110           0
      7918 MEMB     71       SAPE     H5R      HEL1     0.150000       1.00800           0
      7919 MEMB     71       SAPE     C26      CEL1    -0.150000       12.0110           0
      7920 MEMB     71       SAPE     H6R      HEL1     0.150000       1.00800           0
      7921 MEMB     71       SAPE     C27      CTL2    -0.180000       12.0110           0
      7922 MEMB     71       SAPE     H7R      HAL2     0.900000E-01   1.00800           0
      7923 MEMB     71       SAPE     H7S      HAL2     0.900000E-01   1.00800           0
      7924 MEMB     71       SAPE     C28      CEL1    -0.150000       12.0110           0
      7925 MEMB     71       SAPE     H8R      HEL1     0.150000       1.00800           0
      7926 MEMB     71       SAPE     C29      CEL1    -0.150000       12.0110           0
      7927 MEMB     71       SAPE     H9R      HEL1     0.150000       1.00800           0
      7928 MEMB     71       SAPE     C210     CTL2    -0.180000       12.0110           0
      7929 MEMB     71       SAPE     H10R     HAL2     0.900000E-01   1.00800           0
      7930 MEMB     71       SAPE     H10S     HAL2     0.900000E-01   1.00800           0
      7931 MEMB     71       SAPE     C211     CEL1    -0.150000       12.0110           0
      7932 MEMB     71       SAPE     H11R     HEL1     0.150000       1.00800           0
      7933 MEMB     71       SAPE     C212     CEL1    -0.150000       12.0110           0
      7934 MEMB     71       SAPE     H12R     HEL1     0.150000       1.00800           0
      7935 MEMB     71       SAPE     C213     CTL2    -0.180000       12.0110           0
      7936 MEMB     71       SAPE     H13R     HAL2     0.900000E-01   1.00800           0
      7937 MEMB     71       SAPE     H13S     HAL2     0.900000E-01   1.00800           0
      7938 MEMB     71       SAPE     C214     CEL1    -0.150000       12.0110           0
      7939 MEMB     71       SAPE     H14R     HEL1     0.150000       1.00800           0
      7940 MEMB     71       SAPE     C215     CEL1    -0.150000       12.0110           0
      7941 MEMB     71       SAPE     H15R     HEL1     0.150000       1.00800           0
      7942 MEMB     71       SAPE     C216     CTL2    -0.180000       12.0110           0
      7943 MEMB     71       SAPE     H16R     HAL2     0.900000E-01   1.00800           0
      7944 MEMB     71       SAPE     H16S     HAL2     0.900000E-01   1.00800           0
      7945 MEMB     71       SAPE     C217     CTL2    -0.180000       12.0110           0
      7946 MEMB     71       SAPE     H17R     HAL2     0.900000E-01   1.00800           0
      7947 MEMB     71       SAPE     H17S     HAL2     0.900000E-01   1.00800           0
      7948 MEMB     71       SAPE     C218     CTL2    -0.180000       12.0110           0
      7949 MEMB     71       SAPE     H18R     HAL2     0.900000E-01   1.00800           0
      7950 MEMB     71       SAPE     H18S     HAL2     0.900000E-01   1.00800           0
      7951 MEMB     71       SAPE     C219     CTL2    -0.180000       12.0110           0
      7952 MEMB     71       SAPE     H19R     HAL2     0.900000E-01   1.00800           0
      7953 MEMB     71       SAPE     H19S     HAL2     0.900000E-01   1.00800           0
      7954 MEMB     71       SAPE     C220     CTL3    -0.270000       12.0110           0
      7955 MEMB     71       SAPE     H20R     HAL3     0.900000E-01   1.00800           0
      7956 MEMB     71       SAPE     H20S     HAL3     0.900000E-01   1.00800           0
      7957 MEMB     71       SAPE     H20T     HAL3     0.900000E-01   1.00800           0
      7958 MEMB     71       SAPE     C33      CTL2    -0.180000       12.0110           0
      7959 MEMB     71       SAPE     H3X      HAL2     0.900000E-01   1.00800           0
      7960 MEMB     71       SAPE     H3Y      HAL2     0.900000E-01   1.00800           0
      7961 MEMB     71       SAPE     C34      CTL2    -0.180000       12.0110           0
      7962 MEMB     71       SAPE     H4X      HAL2     0.900000E-01   1.00800           0
      7963 MEMB     71       SAPE     H4Y      HAL2     0.900000E-01   1.00800           0
      7964 MEMB     71       SAPE     C35      CTL2    -0.180000       12.0110           0
      7965 MEMB     71       SAPE     H5X      HAL2     0.900000E-01   1.00800           0
      7966 MEMB     71       SAPE     H5Y      HAL2     0.900000E-01   1.00800           0
      7967 MEMB     71       SAPE     C36      CTL2    -0.180000       12.0110           0
      7968 MEMB     71       SAPE     H6X      HAL2     0.900000E-01   1.00800           0
      7969 MEMB     71       SAPE     H6Y      HAL2     0.900000E-01   1.00800           0
      7970 MEMB     71       SAPE     C37      CTL2    -0.180000       12.0110           0
      7971 MEMB     71       SAPE     H7X      HAL2     0.900000E-01   1.00800           0
      7972 MEMB     71       SAPE     H7Y      HAL2     0.900000E-01   1.00800           0
      7973 MEMB     71       SAPE     C38      CTL2    -0.180000       12.0110           0
      7974 MEMB     71       SAPE     H8X      HAL2     0.900000E-01   1.00800           0
      7975 MEMB     71       SAPE     H8Y      HAL2     0.900000E-01   1.00800           0
      7976 MEMB     71       SAPE     C39      CTL2    -0.180000       12.0110           0
      7977 MEMB     71       SAPE     H9X      HAL2     0.900000E-01   1.00800           0
      7978 MEMB     71       SAPE     H9Y      HAL2     0.900000E-01   1.00800           0
      7979 MEMB     71       SAPE     C310     CTL2    -0.180000       12.0110           0
      7980 MEMB     71       SAPE     H10X     HAL2     0.900000E-01   1.00800           0
      7981 MEMB     71       SAPE     H10Y     HAL2     0.900000E-01   1.00800           0
      7982 MEMB     71       SAPE     C311     CTL2    -0.180000       12.0110           0
      7983 MEMB     71       SAPE     H11X     HAL2     0.900000E-01   1.00800           0
      7984 MEMB     71       SAPE     H11Y     HAL2     0.900000E-01   1.00800           0
      7985 MEMB     71       SAPE     C312     CTL2    -0.180000       12.0110           0
      7986 MEMB     71       SAPE     H12X     HAL2     0.900000E-01   1.00800           0
      7987 MEMB     71       SAPE     H12Y     HAL2     0.900000E-01   1.00800           0
      7988 MEMB     71       SAPE     C313     CTL2    -0.180000       12.0110           0
      7989 MEMB     71       SAPE     H13X     HAL2     0.900000E-01   1.00800           0
      7990 MEMB     71       SAPE     H13Y     HAL2     0.900000E-01   1.00800           0
      7991 MEMB     71       SAPE     C314     CTL2    -0.180000       12.0110           0
      7992 MEMB     71       SAPE     H14X     HAL2     0.900000E-01   1.00800           0
      7993 MEMB     71       SAPE     H14Y     HAL2     0.900000E-01   1.00800           0
      7994 MEMB     71       SAPE     C315     CTL2    -0.180000       12.0110           0
      7995 MEMB     71       SAPE     H15X     HAL2     0.900000E-01   1.00800           0
      7996 MEMB     71       SAPE     H15Y     HAL2     0.900000E-01   1.00800           0
      7997 MEMB     71       SAPE     C316     CTL2    -0.180000       12.0110           0
      7998 MEMB     71       SAPE     H16X     HAL2     0.900000E-01   1.00800           0
      7999 MEMB     71       SAPE     H16Y     HAL2     0.900000E-01   1.00800           0
      8000 MEMB     71       SAPE     C317     CTL2    -0.180000       12.0110           0
      8001 MEMB     71       SAPE     H17X     HAL2     0.900000E-01   1.00800           0
      8002 MEMB     71       SAPE     H17Y     HAL2     0.900000E-01   1.00800           0
      8003 MEMB     71       SAPE     C318     CTL3    -0.270000       12.0110           0
      8004 MEMB     71       SAPE     H18X     HAL3     0.900000E-01   1.00800           0
      8005 MEMB     71       SAPE     H18Y     HAL3     0.900000E-01   1.00800           0
      8006 MEMB     71       SAPE     H18Z     HAL3     0.900000E-01   1.00800           0
      8007 MEMB     72       CHL1     C3       CRL1     0.140000       12.0110           0
      8008 MEMB     72       CHL1     H3       HGA1     0.900000E-01   1.00800           0
      8009 MEMB     72       CHL1     O3       OHL     -0.660000       15.9994           0
      8010 MEMB     72       CHL1     H3'      HOL      0.430000       1.00800           0
      8011 MEMB     72       CHL1     C4       CRL2    -0.180000       12.0110           0
      8012 MEMB     72       CHL1     H4A      HGA2     0.900000E-01   1.00800           0
      8013 MEMB     72       CHL1     H4B      HGA2     0.900000E-01   1.00800           0
      8014 MEMB     72       CHL1     C5       CEL1      0.00000       12.0110           0
      8015 MEMB     72       CHL1     C6       CEL1    -0.150000       12.0110           0
      8016 MEMB     72       CHL1     H6       HEL1     0.150000       1.00800           0
      8017 MEMB     72       CHL1     C7       CRL2    -0.180000       12.0110           0
      8018 MEMB     72       CHL1     H7A      HGA2     0.900000E-01   1.00800           0
      8019 MEMB     72       CHL1     H7B      HGA2     0.900000E-01   1.00800           0
      8020 MEMB     72       CHL1     C8       CRL1    -0.900000E-01   12.0110           0
      8021 MEMB     72       CHL1     H8       HGA1     0.900000E-01   1.00800           0
      8022 MEMB     72       CHL1     C14      CRL1    -0.900000E-01   12.0110           0
      8023 MEMB     72       CHL1     H14      HGA1     0.900000E-01   1.00800           0
      8024 MEMB     72       CHL1     C15      CRL2    -0.180000       12.0110           0
      8025 MEMB     72       CHL1     H15A     HGA2     0.900000E-01   1.00800           0
      8026 MEMB     72       CHL1     H15B     HGA2     0.900000E-01   1.00800           0
      8027 MEMB     72       CHL1     C16      CRL2    -0.180000       12.0110           0
      8028 MEMB     72       CHL1     H16A     HGA2     0.900000E-01   1.00800           0
      8029 MEMB     72       CHL1     H16B     HGA2     0.900000E-01   1.00800           0
      8030 MEMB     72       CHL1     C17      CRL1    -0.900000E-01   12.0110           0
      8031 MEMB     72       CHL1     H17      HGA1     0.900000E-01   1.00800           0
      8032 MEMB     72       CHL1     C13      CRL1      0.00000       12.0110           0
      8033 MEMB     72       CHL1     C18      CTL3    -0.270000       12.0110           0
      8034 MEMB     72       CHL1     H18A     HAL3     0.900000E-01   1.00800           0
      8035 MEMB     72       CHL1     H18B     HAL3     0.900000E-01   1.00800           0
      8036 MEMB     72       CHL1     H18C     HAL3     0.900000E-01   1.00800           0
      8037 MEMB     72       CHL1     C12      CRL2    -0.180000       12.0110           0
      8038 MEMB     72       CHL1     H12A     HGA2     0.900000E-01   1.00800           0
      8039 MEMB     72       CHL1     H12B     HGA2     0.900000E-01   1.00800           0
      8040 MEMB     72       CHL1     C11      CRL2    -0.180000       12.0110           0
      8041 MEMB     72       CHL1     H11A     HGA2     0.900000E-01   1.00800           0
      8042 MEMB     72       CHL1     H11B     HGA2     0.900000E-01   1.00800           0
      8043 MEMB     72       CHL1     C9       CRL1    -0.900000E-01   12.0110           0
      8044 MEMB     72       CHL1     H9       HGA1     0.900000E-01   1.00800           0
      8045 MEMB     72       CHL1     C10      CRL1      0.00000       12.0110           0
      8046 MEMB     72       CHL1     C19      CTL3    -0.270000       12.0110           0
      8047 MEMB     72       CHL1     H19A     HAL3     0.900000E-01   1.00800           0
      8048 MEMB     72       CHL1     H19B     HAL3     0.900000E-01   1.00800           0
      8049 MEMB     72       CHL1     H19C     HAL3     0.900000E-01   1.00800           0
      8050 MEMB     72       CHL1     C1       CRL2    -0.180000       12.0110           0
      8051 MEMB     72       CHL1     H1A      HGA2     0.900000E-01   1.00800           0
      8052 MEMB     72       CHL1     H1B      HGA2     0.900000E-01   1.00800           0
      8053 MEMB     72       CHL1     C2       CRL2    -0.180000       12.0110           0
      8054 MEMB     72       CHL1     H2A      HGA2     0.900000E-01   1.00800           0
      8055 MEMB     72       CHL1     H2B      HGA2     0.900000E-01   1.00800           0
      8056 MEMB     72       CHL1     C20      CTL1    -0.900000E-01   12.0110           0
      8057 MEMB     72       CHL1     H20      HAL1     0.900000E-01   1.00800           0
      8058 MEMB     72       CHL1     C21      CTL3    -0.270000       12.0110           0
      8059 MEMB     72       CHL1     H21A     HAL3     0.900000E-01   1.00800           0
      8060 MEMB     72       CHL1     H21B     HAL3     0.900000E-01   1.00800           0
      8061 MEMB     72       CHL1     H21C     HAL3     0.900000E-01   1.00800           0
      8062 MEMB     72       CHL1     C22      CTL2    -0.180000       12.0110           0
      8063 MEMB     72       CHL1     H22A     HAL2     0.900000E-01   1.00800           0
      8064 MEMB     72       CHL1     H22B     HAL2     0.900000E-01   1.00800           0
      8065 MEMB     72       CHL1     C23      CTL2    -0.180000       12.0110           0
      8066 MEMB     72       CHL1     H23A     HAL2     0.900000E-01   1.00800           0
      8067 MEMB     72       CHL1     H23B     HAL2     0.900000E-01   1.00800           0
      8068 MEMB     72       CHL1     C24      CTL2    -0.180000       12.0110           0
      8069 MEMB     72       CHL1     H24A     HAL2     0.900000E-01   1.00800           0
      8070 MEMB     72       CHL1     H24B     HAL2     0.900000E-01   1.00800           0
      8071 MEMB     72       CHL1     C25      CTL1    -0.900000E-01   12.0110           0
      8072 MEMB     72       CHL1     H25      HAL1     0.900000E-01   1.00800           0
      8073 MEMB     72       CHL1     C26      CTL3    -0.270000       12.0110           0
      8074 MEMB     72       CHL1     H26A     HAL3     0.900000E-01   1.00800           0
      8075 MEMB     72       CHL1     H26B     HAL3     0.900000E-01   1.00800           0
      8076 MEMB     72       CHL1     H26C     HAL3     0.900000E-01   1.00800           0
      8077 MEMB     72       CHL1     C27      CTL3    -0.270000       12.0110           0
      8078 MEMB     72       CHL1     H27A     HAL3     0.900000E-01   1.00800           0
      8079 MEMB     72       CHL1     H27B     HAL3     0.900000E-01   1.00800           0
      8080 MEMB     72       CHL1     H27C     HAL3     0.900000E-01   1.00800           0
      8081 MEMB     73       SAPI     C12      CC3161   0.140000       12.0110           0
      8082 MEMB     73       SAPI     H2       HCA1     0.900000E-01   1.00800           0
      8083 MEMB     73       SAPI     O2       OC311   -0.650000       15.9994           0
      8084 MEMB     73       SAPI     HO2      HCP1     0.420000       1.00800           0
      8085 MEMB     73       SAPI     C13      CC3161   0.140000       12.0110           0
      8086 MEMB     73       SAPI     H3       HCA1     0.900000E-01   1.00800           0
      8087 MEMB     73       SAPI     O3       OC311   -0.650000       15.9994           0
      8088 MEMB     73       SAPI     HO3      HCP1     0.420000       1.00800           0
      8089 MEMB     73       SAPI     C14      CC3161   0.140000       12.0110           0
      8090 MEMB     73       SAPI     H4       HCA1     0.900000E-01   1.00800           0
      8091 MEMB     73       SAPI     O4       OC311   -0.650000       15.9994           0
      8092 MEMB     73       SAPI     HO4      HCP1     0.420000       1.00800           0
      8093 MEMB     73       SAPI     C15      CC3161   0.140000       12.0110           0
      8094 MEMB     73       SAPI     H5       HCA1     0.900000E-01   1.00800           0
      8095 MEMB     73       SAPI     O5       OC311   -0.650000       15.9994           0
      8096 MEMB     73       SAPI     HO5      HCP1     0.420000       1.00800           0
      8097 MEMB     73       SAPI     C16      CC3161   0.140000       12.0110           0
      8098 MEMB     73       SAPI     H6       HCA1     0.900000E-01   1.00800           0
      8099 MEMB     73       SAPI     O6       OC311   -0.650000       15.9994           0
      8100 MEMB     73       SAPI     HO6      HCP1     0.420000       1.00800           0
      8101 MEMB     73       SAPI     C11      CC3161  -0.800000E-01   12.0110           0
      8102 MEMB     73       SAPI     H1       HCA1     0.900000E-01   1.00800           0
      8103 MEMB     73       SAPI     P        PL        1.59000       30.9740           0
      8104 MEMB     73       SAPI     O13      O2L     -0.780000       15.9994           0
      8105 MEMB     73       SAPI     O14      O2L     -0.780000       15.9994           0
      8106 MEMB     73       SAPI     O12      OC30P   -0.570000       15.9994           0
      8107 MEMB     73       SAPI     O11      OSLP    -0.570000       15.9994           0
      8108 MEMB     73       SAPI     C1       CTL2    -0.800000E-01   12.0110           0
      8109 MEMB     73       SAPI     HA       HAL2     0.900000E-01   1.00800           0
      8110 MEMB     73       SAPI     HB       HAL2     0.900000E-01   1.00800           0
      8111 MEMB     73       SAPI     C2       CTL1     0.170000       12.0110           0
      8112 MEMB     73       SAPI     HS       HAL1     0.900000E-01   1.00800           0
      8113 MEMB     73       SAPI     O21      OSL     -0.490000       15.9994           0
      8114 MEMB     73       SAPI     C21      CL       0.900000       12.0110           0
      8115 MEMB     73       SAPI     O22      OBL     -0.630000       15.9994           0
      8116 MEMB     73       SAPI     C22      CTL2    -0.220000       12.0110           0
      8117 MEMB     73       SAPI     H2R      HAL2     0.900000E-01   1.00800           0
      8118 MEMB     73       SAPI     H2S      HAL2     0.900000E-01   1.00800           0
      8119 MEMB     73       SAPI     C3       CTL2     0.800000E-01   12.0110           0
      8120 MEMB     73       SAPI     HX       HAL2     0.900000E-01   1.00800           0
      8121 MEMB     73       SAPI     HY       HAL2     0.900000E-01   1.00800           0
      8122 MEMB     73       SAPI     O31      OSL     -0.490000       15.9994           0
      8123 MEMB     73       SAPI     C31      CL       0.900000       12.0110           0
      8124 MEMB     73       SAPI     O32      OBL     -0.630000       15.9994           0
      8125 MEMB     73       SAPI     C32      CTL2    -0.220000       12.0110           0
      8126 MEMB     73       SAPI     H2X      HAL2     0.900000E-01   1.00800           0
      8127 MEMB     73       SAPI     H2Y      HAL2     0.900000E-01   1.00800           0
      8128 MEMB     73       SAPI     C23      CTL2    -0.180000       12.0110           0
      8129 MEMB     73       SAPI     H3R      HAL2     0.900000E-01   1.00800           0
      8130 MEMB     73       SAPI     H3S      HAL2     0.900000E-01   1.00800           0
      8131 MEMB     73       SAPI     C24      CTL2    -0.180000       12.0110           0
      8132 MEMB     73       SAPI     H4R      HAL2     0.900000E-01   1.00800           0
      8133 MEMB     73       SAPI     H4S      HAL2     0.900000E-01   1.00800           0
      8134 MEMB     73       SAPI     C25      CEL1    -0.150000       12.0110           0
      8135 MEMB     73       SAPI     H5R      HEL1     0.150000       1.00800           0
      8136 MEMB     73       SAPI     C26      CEL1    -0.150000       12.0110           0
      8137 MEMB     73       SAPI     H6R      HEL1     0.150000       1.00800           0
      8138 MEMB     73       SAPI     C27      CTL2    -0.180000       12.0110           0
      8139 MEMB     73       SAPI     H7R      HAL2     0.900000E-01   1.00800           0
      8140 MEMB     73       SAPI     H7S      HAL2     0.900000E-01   1.00800           0
      8141 MEMB     73       SAPI     C28      CEL1    -0.150000       12.0110           0
      8142 MEMB     73       SAPI     H8R      HEL1     0.150000       1.00800           0
      8143 MEMB     73       SAPI     C29      CEL1    -0.150000       12.0110           0
      8144 MEMB     73       SAPI     H9R      HEL1     0.150000       1.00800           0
      8145 MEMB     73       SAPI     C210     CTL2    -0.180000       12.0110           0
      8146 MEMB     73       SAPI     H10R     HAL2     0.900000E-01   1.00800           0
      8147 MEMB     73       SAPI     H10S     HAL2     0.900000E-01   1.00800           0
      8148 MEMB     73       SAPI     C211     CEL1    -0.150000       12.0110           0
      8149 MEMB     73       SAPI     H11R     HEL1     0.150000       1.00800           0
      8150 MEMB     73       SAPI     C212     CEL1    -0.150000       12.0110           0
      8151 MEMB     73       SAPI     H12R     HEL1     0.150000       1.00800           0
      8152 MEMB     73       SAPI     C213     CTL2    -0.180000       12.0110           0
      8153 MEMB     73       SAPI     H13R     HAL2     0.900000E-01   1.00800           0
      8154 MEMB     73       SAPI     H13S     HAL2     0.900000E-01   1.00800           0
      8155 MEMB     73       SAPI     C214     CEL1    -0.150000       12.0110           0
      8156 MEMB     73       SAPI     H14R     HEL1     0.150000       1.00800           0
      8157 MEMB     73       SAPI     C215     CEL1    -0.150000       12.0110           0
      8158 MEMB     73       SAPI     H15R     HEL1     0.150000       1.00800           0
      8159 MEMB     73       SAPI     C216     CTL2    -0.180000       12.0110           0
      8160 MEMB     73       SAPI     H16R     HAL2     0.900000E-01   1.00800           0
      8161 MEMB     73       SAPI     H16S     HAL2     0.900000E-01   1.00800           0
      8162 MEMB     73       SAPI     C217     CTL2    -0.180000       12.0110           0
      8163 MEMB     73       SAPI     H17R     HAL2     0.900000E-01   1.00800           0
      8164 MEMB     73       SAPI     H17S     HAL2     0.900000E-01   1.00800           0
      8165 MEMB     73       SAPI     C218     CTL2    -0.180000       12.0110           0
      8166 MEMB     73       SAPI     H18R     HAL2     0.900000E-01   1.00800           0
      8167 MEMB     73       SAPI     H18S     HAL2     0.900000E-01   1.00800           0
      8168 MEMB     73       SAPI     C219     CTL2    -0.180000       12.0110           0
      8169 MEMB     73       SAPI     H19R     HAL2     0.900000E-01   1.00800           0
      8170 MEMB     73       SAPI     H19S     HAL2     0.900000E-01   1.00800           0
      8171 MEMB     73       SAPI     C220     CTL3    -0.270000       12.0110           0
      8172 MEMB     73       SAPI     H20R     HAL3     0.900000E-01   1.00800           0
      8173 MEMB     73       SAPI     H20S     HAL3     0.900000E-01   1.00800           0
      8174 MEMB     73       SAPI     H20T     HAL3     0.900000E-01   1.00800           0
      8175 MEMB     73       SAPI     C33      CTL2    -0.180000       12.0110           0
      8176 MEMB     73       SAPI     H3X      HAL2     0.900000E-01   1.00800           0
      8177 MEMB     73       SAPI     H3Y      HAL2     0.900000E-01   1.00800           0
      8178 MEMB     73       SAPI     C34      CTL2    -0.180000       12.0110           0
      8179 MEMB     73       SAPI     H4X      HAL2     0.900000E-01   1.00800           0
      8180 MEMB     73       SAPI     H4Y      HAL2     0.900000E-01   1.00800           0
      8181 MEMB     73       SAPI     C35      CTL2    -0.180000       12.0110           0
      8182 MEMB     73       SAPI     H5X      HAL2     0.900000E-01   1.00800           0
      8183 MEMB     73       SAPI     H5Y      HAL2     0.900000E-01   1.00800           0
      8184 MEMB     73       SAPI     C36      CTL2    -0.180000       12.0110           0
      8185 MEMB     73       SAPI     H6X      HAL2     0.900000E-01   1.00800           0
      8186 MEMB     73       SAPI     H6Y      HAL2     0.900000E-01   1.00800           0
      8187 MEMB     73       SAPI     C37      CTL2    -0.180000       12.0110           0
      8188 MEMB     73       SAPI     H7X      HAL2     0.900000E-01   1.00800           0
      8189 MEMB     73       SAPI     H7Y      HAL2     0.900000E-01   1.00800           0
      8190 MEMB     73       SAPI     C38      CTL2    -0.180000       12.0110           0
      8191 MEMB     73       SAPI     H8X      HAL2     0.900000E-01   1.00800           0
      8192 MEMB     73       SAPI     H8Y      HAL2     0.900000E-01   1.00800           0
      8193 MEMB     73       SAPI     C39      CTL2    -0.180000       12.0110           0
      8194 MEMB     73       SAPI     H9X      HAL2     0.900000E-01   1.00800           0
      8195 MEMB     73       SAPI     H9Y      HAL2     0.900000E-01   1.00800           0
      8196 MEMB     73       SAPI     C310     CTL2    -0.180000       12.0110           0
      8197 MEMB     73       SAPI     H10X     HAL2     0.900000E-01   1.00800           0
      8198 MEMB     73       SAPI     H10Y     HAL2     0.900000E-01   1.00800           0
      8199 MEMB     73       SAPI     C311     CTL2    -0.180000       12.0110           0
      8200 MEMB     73       SAPI     H11X     HAL2     0.900000E-01   1.00800           0
      8201 MEMB     73       SAPI     H11Y     HAL2     0.900000E-01   1.00800           0
      8202 MEMB     73       SAPI     C312     CTL2    -0.180000       12.0110           0
      8203 MEMB     73       SAPI     H12X     HAL2     0.900000E-01   1.00800           0
      8204 MEMB     73       SAPI     H12Y     HAL2     0.900000E-01   1.00800           0
      8205 MEMB     73       SAPI     C313     CTL2    -0.180000       12.0110           0
      8206 MEMB     73       SAPI     H13X     HAL2     0.900000E-01   1.00800           0
      8207 MEMB     73       SAPI     H13Y     HAL2     0.900000E-01   1.00800           0
      8208 MEMB     73       SAPI     C314     CTL2    -0.180000       12.0110           0
      8209 MEMB     73       SAPI     H14X     HAL2     0.900000E-01   1.00800           0
      8210 MEMB     73       SAPI     H14Y     HAL2     0.900000E-01   1.00800           0
      8211 MEMB     73       SAPI     C315     CTL2    -0.180000       12.0110           0
      8212 MEMB     73       SAPI     H15X     HAL2     0.900000E-01   1.00800           0
      8213 MEMB     73       SAPI     H15Y     HAL2     0.900000E-01   1.00800           0
      8214 MEMB     73       SAPI     C316     CTL2    -0.180000       12.0110           0
      8215 MEMB     73       SAPI     H16X     HAL2     0.900000E-01   1.00800           0
      8216 MEMB     73       SAPI     H16Y     HAL2     0.900000E-01   1.00800           0
      8217 MEMB     73       SAPI     C317     CTL2    -0.180000       12.0110           0
      8218 MEMB     73       SAPI     H17X     HAL2     0.900000E-01   1.00800           0
      8219 MEMB     73       SAPI     H17Y     HAL2     0.900000E-01   1.00800           0
      8220 MEMB     73       SAPI     C318     CTL3    -0.270000       12.0110           0
      8221 MEMB     73       SAPI     H18X     HAL3     0.900000E-01   1.00800           0
      8222 MEMB     73       SAPI     H18Y     HAL3     0.900000E-01   1.00800           0
      8223 MEMB     73       SAPI     H18Z     HAL3     0.900000E-01   1.00800           0
      8224 MEMB     74       OSM      N        NTL     -0.600000       14.0070           0
      8225 MEMB     74       OSM      C15      CTL5    -0.350000       12.0110           0
      8226 MEMB     74       OSM      H15A     HL       0.250000       1.00800           0
      8227 MEMB     74       OSM      H15B     HL       0.250000       1.00800           0
      8228 MEMB     74       OSM      H15C     HL       0.250000       1.00800           0
      8229 MEMB     74       OSM      C14      CTL5    -0.350000       12.0110           0
      8230 MEMB     74       OSM      H14A     HL       0.250000       1.00800           0
      8231 MEMB     74       OSM      H14B     HL       0.250000       1.00800           0
      8232 MEMB     74       OSM      H14C     HL       0.250000       1.00800           0
      8233 MEMB     74       OSM      C13      CTL5    -0.350000       12.0110           0
      8234 MEMB     74       OSM      H13A     HL       0.250000       1.00800           0
      8235 MEMB     74       OSM      H13B     HL       0.250000       1.00800           0
      8236 MEMB     74       OSM      H13C     HL       0.250000       1.00800           0
      8237 MEMB     74       OSM      C12      CTL2    -0.100000       12.0110           0
      8238 MEMB     74       OSM      H12A     HL       0.250000       1.00800           0
      8239 MEMB     74       OSM      H12B     HL       0.250000       1.00800           0
      8240 MEMB     74       OSM      C11      CTL2    -0.800000E-01   12.0110           0
      8241 MEMB     74       OSM      H11A     HAL2     0.900000E-01   1.00800           0
      8242 MEMB     74       OSM      H11B     HAL2     0.900000E-01   1.00800           0
      8243 MEMB     74       OSM      P        PL        1.50000       30.9740           0
      8244 MEMB     74       OSM      O13      O2L     -0.780000       15.9994           0
      8245 MEMB     74       OSM      O14      O2L     -0.780000       15.9994           0
      8246 MEMB     74       OSM      O11      OSLP    -0.570000       15.9994           0
      8247 MEMB     74       OSM      O12      OSLP    -0.570000       15.9994           0
      8248 MEMB     74       OSM      C1S      CTL2    -0.800000E-01   12.0110           0
      8249 MEMB     74       OSM      H1S      HAL2     0.900000E-01   1.00800           0
      8250 MEMB     74       OSM      H1T      HAL2     0.900000E-01   1.00800           0
      8251 MEMB     74       OSM      NF       NHL     -0.700000       14.0070           0
      8252 MEMB     74       OSM      HNF      H        0.350000       1.00800           0
      8253 MEMB     74       OSM      C2S      CTL1     0.300000       12.0110           0
      8254 MEMB     74       OSM      H2S      HAL1     0.500000E-01   1.00800           0
      8255 MEMB     74       OSM      C3S      CTO1     0.500000       12.0110           0
      8256 MEMB     74       OSM      H3S      HAL1    -0.110000       1.00800           0
      8257 MEMB     74       OSM      O3       OHL     -0.690000       15.9994           0
      8258 MEMB     74       OSM      HO3      HOL      0.300000       1.00800           0
      8259 MEMB     74       OSM      C4S      CEL3    -0.150000       12.0110           0
      8260 MEMB     74       OSM      H4S      HEL1     0.150000       1.00800           0
      8261 MEMB     74       OSM      C5S      CEL3    -0.150000       12.0110           0
      8262 MEMB     74       OSM      H5S      HEL1     0.150000       1.00800           0
      8263 MEMB     74       OSM      C6S      CTL2    -0.180000       12.0110           0
      8264 MEMB     74       OSM      H6S      HAL2     0.900000E-01   1.00800           0
      8265 MEMB     74       OSM      H6T      HAL2     0.900000E-01   1.00800           0
      8266 MEMB     74       OSM      C7S      CTL2    -0.180000       12.0110           0
      8267 MEMB     74       OSM      H7S      HAL2     0.900000E-01   1.00800           0
      8268 MEMB     74       OSM      H7T      HAL2     0.900000E-01   1.00800           0
      8269 MEMB     74       OSM      C8S      CTL2    -0.180000       12.0110           0
      8270 MEMB     74       OSM      H8S      HAL2     0.900000E-01   1.00800           0
      8271 MEMB     74       OSM      H8T      HAL2     0.900000E-01   1.00800           0
      8272 MEMB     74       OSM      C9S      CTL2    -0.180000       12.0110           0
      8273 MEMB     74       OSM      H9S      HAL2     0.900000E-01   1.00800           0
      8274 MEMB     74       OSM      H9T      HAL2     0.900000E-01   1.00800           0
      8275 MEMB     74       OSM      C10S     CTL2    -0.180000       12.0110           0
      8276 MEMB     74       OSM      H10S     HAL2     0.900000E-01   1.00800           0
      8277 MEMB     74       OSM      H10T     HAL2     0.900000E-01   1.00800           0
      8278 MEMB     74       OSM      C11S     CTL2    -0.180000       12.0110           0
      8279 MEMB     74       OSM      H11S     HAL2     0.900000E-01   1.00800           0
      8280 MEMB     74       OSM      H11T     HAL2     0.900000E-01   1.00800           0
      8281 MEMB     74       OSM      C12S     CTL2    -0.180000       12.0110           0
      8282 MEMB     74       OSM      H12S     HAL2     0.900000E-01   1.00800           0
      8283 MEMB     74       OSM      H12T     HAL2     0.900000E-01   1.00800           0
      8284 MEMB     74       OSM      C13S     CTL2    -0.180000       12.0110           0
      8285 MEMB     74       OSM      H13S     HAL2     0.900000E-01   1.00800           0
      8286 MEMB     74       OSM      H13T     HAL2     0.900000E-01   1.00800           0
      8287 MEMB     74       OSM      C14S     CTL2    -0.180000       12.0110           0
      8288 MEMB     74       OSM      H14S     HAL2     0.900000E-01   1.00800           0
      8289 MEMB     74       OSM      H14T     HAL2     0.900000E-01   1.00800           0
      8290 MEMB     74       OSM      C15S     CTL2    -0.180000       12.0110           0
      8291 MEMB     74       OSM      H15S     HAL2     0.900000E-01   1.00800           0
      8292 MEMB     74       OSM      H15T     HAL2     0.900000E-01   1.00800           0
      8293 MEMB     74       OSM      C16S     CTL2    -0.180000       12.0110           0
      8294 MEMB     74       OSM      H16S     HAL2     0.900000E-01   1.00800           0
      8295 MEMB     74       OSM      H16T     HAL2     0.900000E-01   1.00800           0
      8296 MEMB     74       OSM      C17S     CTL2    -0.180000       12.0110           0
      8297 MEMB     74       OSM      H17S     HAL2     0.900000E-01   1.00800           0
      8298 MEMB     74       OSM      H17T     HAL2     0.900000E-01   1.00800           0
      8299 MEMB     74       OSM      C18S     CTL3    -0.270000       12.0110           0
      8300 MEMB     74       OSM      H18S     HAL3     0.900000E-01   1.00800           0
      8301 MEMB     74       OSM      H18T     HAL3     0.900000E-01   1.00800           0
      8302 MEMB     74       OSM      H18U     HAL3     0.900000E-01   1.00800           0
      8303 MEMB     74       OSM      C1F      C        0.550000       12.0110           0
      8304 MEMB     74       OSM      OF       O       -0.600000       15.9994           0
      8305 MEMB     74       OSM      C2F      CTL2    -0.700000E-01   12.0110           0
      8306 MEMB     74       OSM      H2F      HAL2     0.600000E-01   1.00800           0
      8307 MEMB     74       OSM      H2G      HAL2     0.600000E-01   1.00800           0
      8308 MEMB     74       OSM      C3F      CTL2    -0.180000       12.0110           0
      8309 MEMB     74       OSM      H3F      HAL2     0.900000E-01   1.00800           0
      8310 MEMB     74       OSM      H3G      HAL2     0.900000E-01   1.00800           0
      8311 MEMB     74       OSM      C4F      CTL2    -0.180000       12.0110           0
      8312 MEMB     74       OSM      H4F      HAL2     0.900000E-01   1.00800           0
      8313 MEMB     74       OSM      H4G      HAL2     0.900000E-01   1.00800           0
      8314 MEMB     74       OSM      C5F      CTL2    -0.180000       12.0110           0
      8315 MEMB     74       OSM      H5F      HAL2     0.900000E-01   1.00800           0
      8316 MEMB     74       OSM      H5G      HAL2     0.900000E-01   1.00800           0
      8317 MEMB     74       OSM      C6F      CTL2    -0.180000       12.0110           0
      8318 MEMB     74       OSM      H6F      HAL2     0.900000E-01   1.00800           0
      8319 MEMB     74       OSM      H6G      HAL2     0.900000E-01   1.00800           0
      8320 MEMB     74       OSM      C7F      CTL2    -0.180000       12.0110           0
      8321 MEMB     74       OSM      H7F      HAL2     0.900000E-01   1.00800           0
      8322 MEMB     74       OSM      H7G      HAL2     0.900000E-01   1.00800           0
      8323 MEMB     74       OSM      C8F      CTL2    -0.180000       12.0110           0
      8324 MEMB     74       OSM      H8F      HAL2     0.900000E-01   1.00800           0
      8325 MEMB     74       OSM      H8G      HAL2     0.900000E-01   1.00800           0
      8326 MEMB     74       OSM      C9F      CEL1    -0.150000       12.0110           0
      8327 MEMB     74       OSM      H9F      HEL1     0.150000       1.00800           0
      8328 MEMB     74       OSM      C10F     CEL1    -0.150000       12.0110           0
      8329 MEMB     74       OSM      H10F     HEL1     0.150000       1.00800           0
      8330 MEMB     74       OSM      C11F     CTL2    -0.180000       12.0110           0
      8331 MEMB     74       OSM      H11F     HAL2     0.900000E-01   1.00800           0
      8332 MEMB     74       OSM      H11G     HAL2     0.900000E-01   1.00800           0
      8333 MEMB     74       OSM      C12F     CTL2    -0.180000       12.0110           0
      8334 MEMB     74       OSM      H12F     HAL2     0.900000E-01   1.00800           0
      8335 MEMB     74       OSM      H12G     HAL2     0.900000E-01   1.00800           0
      8336 MEMB     74       OSM      C13F     CTL2    -0.180000       12.0110           0
      8337 MEMB     74       OSM      H13F     HAL2     0.900000E-01   1.00800           0
      8338 MEMB     74       OSM      H13G     HAL2     0.900000E-01   1.00800           0
      8339 MEMB     74       OSM      C14F     CTL2    -0.180000       12.0110           0
      8340 MEMB     74       OSM      H14F     HAL2     0.900000E-01   1.00800           0
      8341 MEMB     74       OSM      H14G     HAL2     0.900000E-01   1.00800           0
      8342 MEMB     74       OSM      C15F     CTL2    -0.180000       12.0110           0
      8343 MEMB     74       OSM      H15F     HAL2     0.900000E-01   1.00800           0
      8344 MEMB     74       OSM      H15G     HAL2     0.900000E-01   1.00800           0
      8345 MEMB     74       OSM      C16F     CTL2    -0.180000       12.0110           0
      8346 MEMB     74       OSM      H16F     HAL2     0.900000E-01   1.00800           0
      8347 MEMB     74       OSM      H16G     HAL2     0.900000E-01   1.00800           0
      8348 MEMB     74       OSM      C17F     CTL2    -0.180000       12.0110           0
      8349 MEMB     74       OSM      H17F     HAL2     0.900000E-01   1.00800           0
      8350 MEMB     74       OSM      H17G     HAL2     0.900000E-01   1.00800           0
      8351 MEMB     74       OSM      C18F     CTL3    -0.270000       12.0110           0
      8352 MEMB     74       OSM      H18F     HAL3     0.900000E-01   1.00800           0
      8353 MEMB     74       OSM      H18G     HAL3     0.900000E-01   1.00800           0
      8354 MEMB     74       OSM      H18H     HAL3     0.900000E-01   1.00800           0
      8355 MEMB     75       SOPE     N        NH3L    -0.300000       14.0070           0
      8356 MEMB     75       SOPE     HN1      HCL      0.330000       1.00800           0
      8357 MEMB     75       SOPE     HN2      HCL      0.330000       1.00800           0
      8358 MEMB     75       SOPE     HN3      HCL      0.330000       1.00800           0
      8359 MEMB     75       SOPE     C12      CTL2     0.130000       12.0110           0
      8360 MEMB     75       SOPE     H12A     HAL2     0.900000E-01   1.00800           0
      8361 MEMB     75       SOPE     H12B     HAL2     0.900000E-01   1.00800           0
      8362 MEMB     75       SOPE     C11      CTL2    -0.800000E-01   12.0110           0
      8363 MEMB     75       SOPE     H11A     HAL2     0.900000E-01   1.00800           0
      8364 MEMB     75       SOPE     H11B     HAL2     0.900000E-01   1.00800           0
      8365 MEMB     75       SOPE     P        PL        1.50000       30.9740           0
      8366 MEMB     75       SOPE     O13      O2L     -0.780000       15.9994           0
      8367 MEMB     75       SOPE     O14      O2L     -0.780000       15.9994           0
      8368 MEMB     75       SOPE     O12      OSLP    -0.570000       15.9994           0
      8369 MEMB     75       SOPE     O11      OSLP    -0.570000       15.9994           0
      8370 MEMB     75       SOPE     C1       CTL2    -0.800000E-01   12.0110           0
      8371 MEMB     75       SOPE     HA       HAL2     0.900000E-01   1.00800           0
      8372 MEMB     75       SOPE     HB       HAL2     0.900000E-01   1.00800           0
      8373 MEMB     75       SOPE     C2       CTL1     0.170000       12.0110           0
      8374 MEMB     75       SOPE     HS       HAL1     0.900000E-01   1.00800           0
      8375 MEMB     75       SOPE     O21      OSL     -0.490000       15.9994           0
      8376 MEMB     75       SOPE     C21      CL       0.900000       12.0110           0
      8377 MEMB     75       SOPE     O22      OBL     -0.630000       15.9994           0
      8378 MEMB     75       SOPE     C22      CTL2    -0.220000       12.0110           0
      8379 MEMB     75       SOPE     H2R      HAL2     0.900000E-01   1.00800           0
      8380 MEMB     75       SOPE     H2S      HAL2     0.900000E-01   1.00800           0
      8381 MEMB     75       SOPE     C3       CTL2     0.800000E-01   12.0110           0
      8382 MEMB     75       SOPE     HX       HAL2     0.900000E-01   1.00800           0
      8383 MEMB     75       SOPE     HY       HAL2     0.900000E-01   1.00800           0
      8384 MEMB     75       SOPE     O31      OSL     -0.490000       15.9994           0
      8385 MEMB     75       SOPE     C31      CL       0.900000       12.0110           0
      8386 MEMB     75       SOPE     O32      OBL     -0.630000       15.9994           0
      8387 MEMB     75       SOPE     C32      CTL2    -0.220000       12.0110           0
      8388 MEMB     75       SOPE     H2X      HAL2     0.900000E-01   1.00800           0
      8389 MEMB     75       SOPE     H2Y      HAL2     0.900000E-01   1.00800           0
      8390 MEMB     75       SOPE     C23      CTL2    -0.180000       12.0110           0
      8391 MEMB     75       SOPE     H3R      HAL2     0.900000E-01   1.00800           0
      8392 MEMB     75       SOPE     H3S      HAL2     0.900000E-01   1.00800           0
      8393 MEMB     75       SOPE     C24      CTL2    -0.180000       12.0110           0
      8394 MEMB     75       SOPE     H4R      HAL2     0.900000E-01   1.00800           0
      8395 MEMB     75       SOPE     H4S      HAL2     0.900000E-01   1.00800           0
      8396 MEMB     75       SOPE     C25      CTL2    -0.180000       12.0110           0
      8397 MEMB     75       SOPE     H5R      HAL2     0.900000E-01   1.00800           0
      8398 MEMB     75       SOPE     H5S      HAL2     0.900000E-01   1.00800           0
      8399 MEMB     75       SOPE     C26      CTL2    -0.180000       12.0110           0
      8400 MEMB     75       SOPE     H6R      HAL2     0.900000E-01   1.00800           0
      8401 MEMB     75       SOPE     H6S      HAL2     0.900000E-01   1.00800           0
      8402 MEMB     75       SOPE     C27      CTL2    -0.180000       12.0110           0
      8403 MEMB     75       SOPE     H7R      HAL2     0.900000E-01   1.00800           0
      8404 MEMB     75       SOPE     H7S      HAL2     0.900000E-01   1.00800           0
      8405 MEMB     75       SOPE     C28      CTL2    -0.180000       12.0110           0
      8406 MEMB     75       SOPE     H8R      HAL2     0.900000E-01   1.00800           0
      8407 MEMB     75       SOPE     H8S      HAL2     0.900000E-01   1.00800           0
      8408 MEMB     75       SOPE     C29      CEL1    -0.150000       12.0110           0
      8409 MEMB     75       SOPE     H91      HEL1     0.150000       1.00800           0
      8410 MEMB     75       SOPE     C210     CEL1    -0.150000       12.0110           0
      8411 MEMB     75       SOPE     H101     HEL1     0.150000       1.00800           0
      8412 MEMB     75       SOPE     C211     CTL2    -0.180000       12.0110           0
      8413 MEMB     75       SOPE     H11R     HAL2     0.900000E-01   1.00800           0
      8414 MEMB     75       SOPE     H11S     HAL2     0.900000E-01   1.00800           0
      8415 MEMB     75       SOPE     C212     CTL2    -0.180000       12.0110           0
      8416 MEMB     75       SOPE     H12R     HAL2     0.900000E-01   1.00800           0
      8417 MEMB     75       SOPE     H12S     HAL2     0.900000E-01   1.00800           0
      8418 MEMB     75       SOPE     C213     CTL2    -0.180000       12.0110           0
      8419 MEMB     75       SOPE     H13R     HAL2     0.900000E-01   1.00800           0
      8420 MEMB     75       SOPE     H13S     HAL2     0.900000E-01   1.00800           0
      8421 MEMB     75       SOPE     C214     CTL2    -0.180000       12.0110           0
      8422 MEMB     75       SOPE     H14R     HAL2     0.900000E-01   1.00800           0
      8423 MEMB     75       SOPE     H14S     HAL2     0.900000E-01   1.00800           0
      8424 MEMB     75       SOPE     C215     CTL2    -0.180000       12.0110           0
      8425 MEMB     75       SOPE     H15R     HAL2     0.900000E-01   1.00800           0
      8426 MEMB     75       SOPE     H15S     HAL2     0.900000E-01   1.00800           0
      8427 MEMB     75       SOPE     C216     CTL2    -0.180000       12.0110           0
      8428 MEMB     75       SOPE     H16R     HAL2     0.900000E-01   1.00800           0
      8429 MEMB     75       SOPE     H16S     HAL2     0.900000E-01   1.00800           0
      8430 MEMB     75       SOPE     C217     CTL2    -0.180000       12.0110           0
      8431 MEMB     75       SOPE     H17R     HAL2     0.900000E-01   1.00800           0
      8432 MEMB     75       SOPE     H17S     HAL2     0.900000E-01   1.00800           0
      8433 MEMB     75       SOPE     C218     CTL3    -0.270000       12.0110           0
      8434 MEMB     75       SOPE     H18R     HAL3     0.900000E-01   1.00800           0
      8435 MEMB     75       SOPE     H18S     HAL3     0.900000E-01   1.00800           0
      8436 MEMB     75       SOPE     H18T     HAL3     0.900000E-01   1.00800           0
      8437 MEMB     75       SOPE     C33      CTL2    -0.180000       12.0110           0
      8438 MEMB     75       SOPE     H3X      HAL2     0.900000E-01   1.00800           0
      8439 MEMB     75       SOPE     H3Y      HAL2     0.900000E-01   1.00800           0
      8440 MEMB     75       SOPE     C34      CTL2    -0.180000       12.0110           0
      8441 MEMB     75       SOPE     H4X      HAL2     0.900000E-01   1.00800           0
      8442 MEMB     75       SOPE     H4Y      HAL2     0.900000E-01   1.00800           0
      8443 MEMB     75       SOPE     C35      CTL2    -0.180000       12.0110           0
      8444 MEMB     75       SOPE     H5X      HAL2     0.900000E-01   1.00800           0
      8445 MEMB     75       SOPE     H5Y      HAL2     0.900000E-01   1.00800           0
      8446 MEMB     75       SOPE     C36      CTL2    -0.180000       12.0110           0
      8447 MEMB     75       SOPE     H6X      HAL2     0.900000E-01   1.00800           0
      8448 MEMB     75       SOPE     H6Y      HAL2     0.900000E-01   1.00800           0
      8449 MEMB     75       SOPE     C37      CTL2    -0.180000       12.0110           0
      8450 MEMB     75       SOPE     H7X      HAL2     0.900000E-01   1.00800           0
      8451 MEMB     75       SOPE     H7Y      HAL2     0.900000E-01   1.00800           0
      8452 MEMB     75       SOPE     C38      CTL2    -0.180000       12.0110           0
      8453 MEMB     75       SOPE     H8X      HAL2     0.900000E-01   1.00800           0
      8454 MEMB     75       SOPE     H8Y      HAL2     0.900000E-01   1.00800           0
      8455 MEMB     75       SOPE     C39      CTL2    -0.180000       12.0110           0
      8456 MEMB     75       SOPE     H9X      HAL2     0.900000E-01   1.00800           0
      8457 MEMB     75       SOPE     H9Y      HAL2     0.900000E-01   1.00800           0
      8458 MEMB     75       SOPE     C310     CTL2    -0.180000       12.0110           0
      8459 MEMB     75       SOPE     H10X     HAL2     0.900000E-01   1.00800           0
      8460 MEMB     75       SOPE     H10Y     HAL2     0.900000E-01   1.00800           0
      8461 MEMB     75       SOPE     C311     CTL2    -0.180000       12.0110           0
      8462 MEMB     75       SOPE     H11X     HAL2     0.900000E-01   1.00800           0
      8463 MEMB     75       SOPE     H11Y     HAL2     0.900000E-01   1.00800           0
      8464 MEMB     75       SOPE     C312     CTL2    -0.180000       12.0110           0
      8465 MEMB     75       SOPE     H12X     HAL2     0.900000E-01   1.00800           0
      8466 MEMB     75       SOPE     H12Y     HAL2     0.900000E-01   1.00800           0
      8467 MEMB     75       SOPE     C313     CTL2    -0.180000       12.0110           0
      8468 MEMB     75       SOPE     H13X     HAL2     0.900000E-01   1.00800           0
      8469 MEMB     75       SOPE     H13Y     HAL2     0.900000E-01   1.00800           0
      8470 MEMB     75       SOPE     C314     CTL2    -0.180000       12.0110           0
      8471 MEMB     75       SOPE     H14X     HAL2     0.900000E-01   1.00800           0
      8472 MEMB     75       SOPE     H14Y     HAL2     0.900000E-01   1.00800           0
      8473 MEMB     75       SOPE     C315     CTL2    -0.180000       12.0110           0
      8474 MEMB     75       SOPE     H15X     HAL2     0.900000E-01   1.00800           0
      8475 MEMB     75       SOPE     H15Y     HAL2     0.900000E-01   1.00800           0
      8476 MEMB     75       SOPE     C316     CTL2    -0.180000       12.0110           0
      8477 MEMB     75       SOPE     H16X     HAL2     0.900000E-01   1.00800           0
      8478 MEMB     75       SOPE     H16Y     HAL2     0.900000E-01   1.00800           0
      8479 MEMB     75       SOPE     C317     CTL2    -0.180000       12.0110           0
      8480 MEMB     75       SOPE     H17X     HAL2     0.900000E-01   1.00800           0
      8481 MEMB     75       SOPE     H17Y     HAL2     0.900000E-01   1.00800           0
      8482 MEMB     75       SOPE     C318     CTL3    -0.270000       12.0110           0
      8483 MEMB     75       SOPE     H18X     HAL3     0.900000E-01   1.00800           0
      8484 MEMB     75       SOPE     H18Y     HAL3     0.900000E-01   1.00800           0
      8485 MEMB     75       SOPE     H18Z     HAL3     0.900000E-01   1.00800           0
      8486 MEMB     76       SLPC     N        NTL     -0.600000       14.0070           0
      8487 MEMB     76       SLPC     C13      CTL5    -0.350000       12.0110           0
      8488 MEMB     76       SLPC     H13A     HL       0.250000       1.00800           0
      8489 MEMB     76       SLPC     H13B     HL       0.250000       1.00800           0
      8490 MEMB     76       SLPC     H13C     HL       0.250000       1.00800           0
      8491 MEMB     76       SLPC     C14      CTL5    -0.350000       12.0110           0
      8492 MEMB     76       SLPC     H14A     HL       0.250000       1.00800           0
      8493 MEMB     76       SLPC     H14B     HL       0.250000       1.00800           0
      8494 MEMB     76       SLPC     H14C     HL       0.250000       1.00800           0
      8495 MEMB     76       SLPC     C15      CTL5    -0.350000       12.0110           0
      8496 MEMB     76       SLPC     H15A     HL       0.250000       1.00800           0
      8497 MEMB     76       SLPC     H15B     HL       0.250000       1.00800           0
      8498 MEMB     76       SLPC     H15C     HL       0.250000       1.00800           0
      8499 MEMB     76       SLPC     C12      CTL2    -0.100000       12.0110           0
      8500 MEMB     76       SLPC     H12A     HL       0.250000       1.00800           0
      8501 MEMB     76       SLPC     H12B     HL       0.250000       1.00800           0
      8502 MEMB     76       SLPC     C11      CTL2    -0.800000E-01   12.0110           0
      8503 MEMB     76       SLPC     H11A     HAL2     0.900000E-01   1.00800           0
      8504 MEMB     76       SLPC     H11B     HAL2     0.900000E-01   1.00800           0
      8505 MEMB     76       SLPC     P        PL        1.50000       30.9740           0
      8506 MEMB     76       SLPC     O13      O2L     -0.780000       15.9994           0
      8507 MEMB     76       SLPC     O14      O2L     -0.780000       15.9994           0
      8508 MEMB     76       SLPC     O12      OSLP    -0.570000       15.9994           0
      8509 MEMB     76       SLPC     O11      OSLP    -0.570000       15.9994           0
      8510 MEMB     76       SLPC     C1       CTL2    -0.800000E-01   12.0110           0
      8511 MEMB     76       SLPC     HA       HAL2     0.900000E-01   1.00800           0
      8512 MEMB     76       SLPC     HB       HAL2     0.900000E-01   1.00800           0
      8513 MEMB     76       SLPC     C2       CTL1     0.170000       12.0110           0
      8514 MEMB     76       SLPC     HS       HAL1     0.900000E-01   1.00800           0
      8515 MEMB     76       SLPC     O21      OSL     -0.490000       15.9994           0
      8516 MEMB     76       SLPC     C21      CL       0.900000       12.0110           0
      8517 MEMB     76       SLPC     O22      OBL     -0.630000       15.9994           0
      8518 MEMB     76       SLPC     C22      CTL2    -0.220000       12.0110           0
      8519 MEMB     76       SLPC     H2R      HAL2     0.900000E-01   1.00800           0
      8520 MEMB     76       SLPC     H2S      HAL2     0.900000E-01   1.00800           0
      8521 MEMB     76       SLPC     C3       CTL2     0.800000E-01   12.0110           0
      8522 MEMB     76       SLPC     HX       HAL2     0.900000E-01   1.00800           0
      8523 MEMB     76       SLPC     HY       HAL2     0.900000E-01   1.00800           0
      8524 MEMB     76       SLPC     O31      OSL     -0.490000       15.9994           0
      8525 MEMB     76       SLPC     C31      CL       0.900000       12.0110           0
      8526 MEMB     76       SLPC     O32      OBL     -0.630000       15.9994           0
      8527 MEMB     76       SLPC     C32      CTL2    -0.220000       12.0110           0
      8528 MEMB     76       SLPC     H2X      HAL2     0.900000E-01   1.00800           0
      8529 MEMB     76       SLPC     H2Y      HAL2     0.900000E-01   1.00800           0
      8530 MEMB     76       SLPC     C23      CTL2    -0.180000       12.0110           0
      8531 MEMB     76       SLPC     H3R      HAL2     0.900000E-01   1.00800           0
      8532 MEMB     76       SLPC     H3S      HAL2     0.900000E-01   1.00800           0
      8533 MEMB     76       SLPC     C24      CTL2    -0.180000       12.0110           0
      8534 MEMB     76       SLPC     H4R      HAL2     0.900000E-01   1.00800           0
      8535 MEMB     76       SLPC     H4S      HAL2     0.900000E-01   1.00800           0
      8536 MEMB     76       SLPC     C25      CTL2    -0.180000       12.0110           0
      8537 MEMB     76       SLPC     H5R      HAL2     0.900000E-01   1.00800           0
      8538 MEMB     76       SLPC     H5S      HAL2     0.900000E-01   1.00800           0
      8539 MEMB     76       SLPC     C26      CTL2    -0.180000       12.0110           0
      8540 MEMB     76       SLPC     H6R      HAL2     0.900000E-01   1.00800           0
      8541 MEMB     76       SLPC     H6S      HAL2     0.900000E-01   1.00800           0
      8542 MEMB     76       SLPC     C27      CTL2    -0.180000       12.0110           0
      8543 MEMB     76       SLPC     H7R      HAL2     0.900000E-01   1.00800           0
      8544 MEMB     76       SLPC     H7S      HAL2     0.900000E-01   1.00800           0
      8545 MEMB     76       SLPC     C28      CTL2    -0.180000       12.0110           0
      8546 MEMB     76       SLPC     H8R      HAL2     0.900000E-01   1.00800           0
      8547 MEMB     76       SLPC     H8S      HAL2     0.900000E-01   1.00800           0
      8548 MEMB     76       SLPC     C29      CEL1    -0.150000       12.0110           0
      8549 MEMB     76       SLPC     H9R      HEL1     0.150000       1.00800           0
      8550 MEMB     76       SLPC     C210     CEL1    -0.150000       12.0110           0
      8551 MEMB     76       SLPC     H10R     HEL1     0.150000       1.00800           0
      8552 MEMB     76       SLPC     C211     CTL2    -0.180000       12.0110           0
      8553 MEMB     76       SLPC     H11R     HAL2     0.900000E-01   1.00800           0
      8554 MEMB     76       SLPC     H11S     HAL2     0.900000E-01   1.00800           0
      8555 MEMB     76       SLPC     C212     CEL1    -0.150000       12.0110           0
      8556 MEMB     76       SLPC     H12R     HEL1     0.150000       1.00800           0
      8557 MEMB     76       SLPC     C213     CEL1    -0.150000       12.0110           0
      8558 MEMB     76       SLPC     H13R     HEL1     0.150000       1.00800           0
      8559 MEMB     76       SLPC     C214     CTL2    -0.180000       12.0110           0
      8560 MEMB     76       SLPC     H14R     HAL2     0.900000E-01   1.00800           0
      8561 MEMB     76       SLPC     H14S     HAL2     0.900000E-01   1.00800           0
      8562 MEMB     76       SLPC     C215     CTL2    -0.180000       12.0110           0
      8563 MEMB     76       SLPC     H15R     HAL2     0.900000E-01   1.00800           0
      8564 MEMB     76       SLPC     H15S     HAL2     0.900000E-01   1.00800           0
      8565 MEMB     76       SLPC     C216     CTL2    -0.180000       12.0110           0
      8566 MEMB     76       SLPC     H16R     HAL2     0.900000E-01   1.00800           0
      8567 MEMB     76       SLPC     H16S     HAL2     0.900000E-01   1.00800           0
      8568 MEMB     76       SLPC     C217     CTL2    -0.180000       12.0110           0
      8569 MEMB     76       SLPC     H17R     HAL2     0.900000E-01   1.00800           0
      8570 MEMB     76       SLPC     H17S     HAL2     0.900000E-01   1.00800           0
      8571 MEMB     76       SLPC     C218     CTL3    -0.270000       12.0110           0
      8572 MEMB     76       SLPC     H18R     HAL3     0.900000E-01   1.00800           0
      8573 MEMB     76       SLPC     H18S     HAL3     0.900000E-01   1.00800           0
      8574 MEMB     76       SLPC     H18T     HAL3     0.900000E-01   1.00800           0
      8575 MEMB     76       SLPC     C33      CTL2    -0.180000       12.0110           0
      8576 MEMB     76       SLPC     H3X      HAL2     0.900000E-01   1.00800           0
      8577 MEMB     76       SLPC     H3Y      HAL2     0.900000E-01   1.00800           0
      8578 MEMB     76       SLPC     C34      CTL2    -0.180000       12.0110           0
      8579 MEMB     76       SLPC     H4X      HAL2     0.900000E-01   1.00800           0
      8580 MEMB     76       SLPC     H4Y      HAL2     0.900000E-01   1.00800           0
      8581 MEMB     76       SLPC     C35      CTL2    -0.180000       12.0110           0
      8582 MEMB     76       SLPC     H5X      HAL2     0.900000E-01   1.00800           0
      8583 MEMB     76       SLPC     H5Y      HAL2     0.900000E-01   1.00800           0
      8584 MEMB     76       SLPC     C36      CTL2    -0.180000       12.0110           0
      8585 MEMB     76       SLPC     H6X      HAL2     0.900000E-01   1.00800           0
      8586 MEMB     76       SLPC     H6Y      HAL2     0.900000E-01   1.00800           0
      8587 MEMB     76       SLPC     C37      CTL2    -0.180000       12.0110           0
      8588 MEMB     76       SLPC     H7X      HAL2     0.900000E-01   1.00800           0
      8589 MEMB     76       SLPC     H7Y      HAL2     0.900000E-01   1.00800           0
      8590 MEMB     76       SLPC     C38      CTL2    -0.180000       12.0110           0
      8591 MEMB     76       SLPC     H8X      HAL2     0.900000E-01   1.00800           0
      8592 MEMB     76       SLPC     H8Y      HAL2     0.900000E-01   1.00800           0
      8593 MEMB     76       SLPC     C39      CTL2    -0.180000       12.0110           0
      8594 MEMB     76       SLPC     H9X      HAL2     0.900000E-01   1.00800           0
      8595 MEMB     76       SLPC     H9Y      HAL2     0.900000E-01   1.00800           0
      8596 MEMB     76       SLPC     C310     CTL2    -0.180000       12.0110           0
      8597 MEMB     76       SLPC     H10X     HAL2     0.900000E-01   1.00800           0
      8598 MEMB     76       SLPC     H10Y     HAL2     0.900000E-01   1.00800           0
      8599 MEMB     76       SLPC     C311     CTL2    -0.180000       12.0110           0
      8600 MEMB     76       SLPC     H11X     HAL2     0.900000E-01   1.00800           0
      8601 MEMB     76       SLPC     H11Y     HAL2     0.900000E-01   1.00800           0
      8602 MEMB     76       SLPC     C312     CTL2    -0.180000       12.0110           0
      8603 MEMB     76       SLPC     H12X     HAL2     0.900000E-01   1.00800           0
      8604 MEMB     76       SLPC     H12Y     HAL2     0.900000E-01   1.00800           0
      8605 MEMB     76       SLPC     C313     CTL2    -0.180000       12.0110           0
      8606 MEMB     76       SLPC     H13X     HAL2     0.900000E-01   1.00800           0
      8607 MEMB     76       SLPC     H13Y     HAL2     0.900000E-01   1.00800           0
      8608 MEMB     76       SLPC     C314     CTL2    -0.180000       12.0110           0
      8609 MEMB     76       SLPC     H14X     HAL2     0.900000E-01   1.00800           0
      8610 MEMB     76       SLPC     H14Y     HAL2     0.900000E-01   1.00800           0
      8611 MEMB     76       SLPC     C315     CTL2    -0.180000       12.0110           0
      8612 MEMB     76       SLPC     H15X     HAL2     0.900000E-01   1.00800           0
      8613 MEMB     76       SLPC     H15Y     HAL2     0.900000E-01   1.00800           0
      8614 MEMB     76       SLPC     C316     CTL2    -0.180000       12.0110           0
      8615 MEMB     76       SLPC     H16X     HAL2     0.900000E-01   1.00800           0
      8616 MEMB     76       SLPC     H16Y     HAL2     0.900000E-01   1.00800           0
      8617 MEMB     76       SLPC     C317     CTL2    -0.180000       12.0110           0
      8618 MEMB     76       SLPC     H17X     HAL2     0.900000E-01   1.00800           0
      8619 MEMB     76       SLPC     H17Y     HAL2     0.900000E-01   1.00800           0
      8620 MEMB     76       SLPC     C318     CTL3    -0.270000       12.0110           0
      8621 MEMB     76       SLPC     H18X     HAL3     0.900000E-01   1.00800           0
      8622 MEMB     76       SLPC     H18Y     HAL3     0.900000E-01   1.00800           0
      8623 MEMB     76       SLPC     H18Z     HAL3     0.900000E-01   1.00800           0
      8624 MEMB     77       SAPE     N        NH3L    -0.300000       14.0070           0
      8625 MEMB     77       SAPE     HN1      HCL      0.330000       1.00800           0
      8626 MEMB     77       SAPE     HN2      HCL      0.330000       1.00800           0
      8627 MEMB     77       SAPE     HN3      HCL      0.330000       1.00800           0
      8628 MEMB     77       SAPE     C12      CTL2     0.130000       12.0110           0
      8629 MEMB     77       SAPE     H12A     HAL2     0.900000E-01   1.00800           0
      8630 MEMB     77       SAPE     H12B     HAL2     0.900000E-01   1.00800           0
      8631 MEMB     77       SAPE     C11      CTL2    -0.800000E-01   12.0110           0
      8632 MEMB     77       SAPE     H11A     HAL2     0.900000E-01   1.00800           0
      8633 MEMB     77       SAPE     H11B     HAL2     0.900000E-01   1.00800           0
      8634 MEMB     77       SAPE     P        PL        1.50000       30.9740           0
      8635 MEMB     77       SAPE     O13      O2L     -0.780000       15.9994           0
      8636 MEMB     77       SAPE     O14      O2L     -0.780000       15.9994           0
      8637 MEMB     77       SAPE     O12      OSLP    -0.570000       15.9994           0
      8638 MEMB     77       SAPE     O11      OSLP    -0.570000       15.9994           0
      8639 MEMB     77       SAPE     C1       CTL2    -0.800000E-01   12.0110           0
      8640 MEMB     77       SAPE     HA       HAL2     0.900000E-01   1.00800           0
      8641 MEMB     77       SAPE     HB       HAL2     0.900000E-01   1.00800           0
      8642 MEMB     77       SAPE     C2       CTL1     0.170000       12.0110           0
      8643 MEMB     77       SAPE     HS       HAL1     0.900000E-01   1.00800           0
      8644 MEMB     77       SAPE     O21      OSL     -0.490000       15.9994           0
      8645 MEMB     77       SAPE     C21      CL       0.900000       12.0110           0
      8646 MEMB     77       SAPE     O22      OBL     -0.630000       15.9994           0
      8647 MEMB     77       SAPE     C22      CTL2    -0.220000       12.0110           0
      8648 MEMB     77       SAPE     H2R      HAL2     0.900000E-01   1.00800           0
      8649 MEMB     77       SAPE     H2S      HAL2     0.900000E-01   1.00800           0
      8650 MEMB     77       SAPE     C3       CTL2     0.800000E-01   12.0110           0
      8651 MEMB     77       SAPE     HX       HAL2     0.900000E-01   1.00800           0
      8652 MEMB     77       SAPE     HY       HAL2     0.900000E-01   1.00800           0
      8653 MEMB     77       SAPE     O31      OSL     -0.490000       15.9994           0
      8654 MEMB     77       SAPE     C31      CL       0.900000       12.0110           0
      8655 MEMB     77       SAPE     O32      OBL     -0.630000       15.9994           0
      8656 MEMB     77       SAPE     C32      CTL2    -0.220000       12.0110           0
      8657 MEMB     77       SAPE     H2X      HAL2     0.900000E-01   1.00800           0
      8658 MEMB     77       SAPE     H2Y      HAL2     0.900000E-01   1.00800           0
      8659 MEMB     77       SAPE     C23      CTL2    -0.180000       12.0110           0
      8660 MEMB     77       SAPE     H3R      HAL2     0.900000E-01   1.00800           0
      8661 MEMB     77       SAPE     H3S      HAL2     0.900000E-01   1.00800           0
      8662 MEMB     77       SAPE     C24      CTL2    -0.180000       12.0110           0
      8663 MEMB     77       SAPE     H4R      HAL2     0.900000E-01   1.00800           0
      8664 MEMB     77       SAPE     H4S      HAL2     0.900000E-01   1.00800           0
      8665 MEMB     77       SAPE     C25      CEL1    -0.150000       12.0110           0
      8666 MEMB     77       SAPE     H5R      HEL1     0.150000       1.00800           0
      8667 MEMB     77       SAPE     C26      CEL1    -0.150000       12.0110           0
      8668 MEMB     77       SAPE     H6R      HEL1     0.150000       1.00800           0
      8669 MEMB     77       SAPE     C27      CTL2    -0.180000       12.0110           0
      8670 MEMB     77       SAPE     H7R      HAL2     0.900000E-01   1.00800           0
      8671 MEMB     77       SAPE     H7S      HAL2     0.900000E-01   1.00800           0
      8672 MEMB     77       SAPE     C28      CEL1    -0.150000       12.0110           0
      8673 MEMB     77       SAPE     H8R      HEL1     0.150000       1.00800           0
      8674 MEMB     77       SAPE     C29      CEL1    -0.150000       12.0110           0
      8675 MEMB     77       SAPE     H9R      HEL1     0.150000       1.00800           0
      8676 MEMB     77       SAPE     C210     CTL2    -0.180000       12.0110           0
      8677 MEMB     77       SAPE     H10R     HAL2     0.900000E-01   1.00800           0
      8678 MEMB     77       SAPE     H10S     HAL2     0.900000E-01   1.00800           0
      8679 MEMB     77       SAPE     C211     CEL1    -0.150000       12.0110           0
      8680 MEMB     77       SAPE     H11R     HEL1     0.150000       1.00800           0
      8681 MEMB     77       SAPE     C212     CEL1    -0.150000       12.0110           0
      8682 MEMB     77       SAPE     H12R     HEL1     0.150000       1.00800           0
      8683 MEMB     77       SAPE     C213     CTL2    -0.180000       12.0110           0
      8684 MEMB     77       SAPE     H13R     HAL2     0.900000E-01   1.00800           0
      8685 MEMB     77       SAPE     H13S     HAL2     0.900000E-01   1.00800           0
      8686 MEMB     77       SAPE     C214     CEL1    -0.150000       12.0110           0
      8687 MEMB     77       SAPE     H14R     HEL1     0.150000       1.00800           0
      8688 MEMB     77       SAPE     C215     CEL1    -0.150000       12.0110           0
      8689 MEMB     77       SAPE     H15R     HEL1     0.150000       1.00800           0
      8690 MEMB     77       SAPE     C216     CTL2    -0.180000       12.0110           0
      8691 MEMB     77       SAPE     H16R     HAL2     0.900000E-01   1.00800           0
      8692 MEMB     77       SAPE     H16S     HAL2     0.900000E-01   1.00800           0
      8693 MEMB     77       SAPE     C217     CTL2    -0.180000       12.0110           0
      8694 MEMB     77       SAPE     H17R     HAL2     0.900000E-01   1.00800           0
      8695 MEMB     77       SAPE     H17S     HAL2     0.900000E-01   1.00800           0
      8696 MEMB     77       SAPE     C218     CTL2    -0.180000       12.0110           0
      8697 MEMB     77       SAPE     H18R     HAL2     0.900000E-01   1.00800           0
      8698 MEMB     77       SAPE     H18S     HAL2     0.900000E-01   1.00800           0
      8699 MEMB     77       SAPE     C219     CTL2    -0.180000       12.0110           0
      8700 MEMB     77       SAPE     H19R     HAL2     0.900000E-01   1.00800           0
      8701 MEMB     77       SAPE     H19S     HAL2     0.900000E-01   1.00800           0
      8702 MEMB     77       SAPE     C220     CTL3    -0.270000       12.0110           0
      8703 MEMB     77       SAPE     H20R     HAL3     0.900000E-01   1.00800           0
      8704 MEMB     77       SAPE     H20S     HAL3     0.900000E-01   1.00800           0
      8705 MEMB     77       SAPE     H20T     HAL3     0.900000E-01   1.00800           0
      8706 MEMB     77       SAPE     C33      CTL2    -0.180000       12.0110           0
      8707 MEMB     77       SAPE     H3X      HAL2     0.900000E-01   1.00800           0
      8708 MEMB     77       SAPE     H3Y      HAL2     0.900000E-01   1.00800           0
      8709 MEMB     77       SAPE     C34      CTL2    -0.180000       12.0110           0
      8710 MEMB     77       SAPE     H4X      HAL2     0.900000E-01   1.00800           0
      8711 MEMB     77       SAPE     H4Y      HAL2     0.900000E-01   1.00800           0
      8712 MEMB     77       SAPE     C35      CTL2    -0.180000       12.0110           0
      8713 MEMB     77       SAPE     H5X      HAL2     0.900000E-01   1.00800           0
      8714 MEMB     77       SAPE     H5Y      HAL2     0.900000E-01   1.00800           0
      8715 MEMB     77       SAPE     C36      CTL2    -0.180000       12.0110           0
      8716 MEMB     77       SAPE     H6X      HAL2     0.900000E-01   1.00800           0
      8717 MEMB     77       SAPE     H6Y      HAL2     0.900000E-01   1.00800           0
      8718 MEMB     77       SAPE     C37      CTL2    -0.180000       12.0110           0
      8719 MEMB     77       SAPE     H7X      HAL2     0.900000E-01   1.00800           0
      8720 MEMB     77       SAPE     H7Y      HAL2     0.900000E-01   1.00800           0
      8721 MEMB     77       SAPE     C38      CTL2    -0.180000       12.0110           0
      8722 MEMB     77       SAPE     H8X      HAL2     0.900000E-01   1.00800           0
      8723 MEMB     77       SAPE     H8Y      HAL2     0.900000E-01   1.00800           0
      8724 MEMB     77       SAPE     C39      CTL2    -0.180000       12.0110           0
      8725 MEMB     77       SAPE     H9X      HAL2     0.900000E-01   1.00800           0
      8726 MEMB     77       SAPE     H9Y      HAL2     0.900000E-01   1.00800           0
      8727 MEMB     77       SAPE     C310     CTL2    -0.180000       12.0110           0
      8728 MEMB     77       SAPE     H10X     HAL2     0.900000E-01   1.00800           0
      8729 MEMB     77       SAPE     H10Y     HAL2     0.900000E-01   1.00800           0
      8730 MEMB     77       SAPE     C311     CTL2    -0.180000       12.0110           0
      8731 MEMB     77       SAPE     H11X     HAL2     0.900000E-01   1.00800           0
      8732 MEMB     77       SAPE     H11Y     HAL2     0.900000E-01   1.00800           0
      8733 MEMB     77       SAPE     C312     CTL2    -0.180000       12.0110           0
      8734 MEMB     77       SAPE     H12X     HAL2     0.900000E-01   1.00800           0
      8735 MEMB     77       SAPE     H12Y     HAL2     0.900000E-01   1.00800           0
      8736 MEMB     77       SAPE     C313     CTL2    -0.180000       12.0110           0
      8737 MEMB     77       SAPE     H13X     HAL2     0.900000E-01   1.00800           0
      8738 MEMB     77       SAPE     H13Y     HAL2     0.900000E-01   1.00800           0
      8739 MEMB     77       SAPE     C314     CTL2    -0.180000       12.0110           0
      8740 MEMB     77       SAPE     H14X     HAL2     0.900000E-01   1.00800           0
      8741 MEMB     77       SAPE     H14Y     HAL2     0.900000E-01   1.00800           0
      8742 MEMB     77       SAPE     C315     CTL2    -0.180000       12.0110           0
      8743 MEMB     77       SAPE     H15X     HAL2     0.900000E-01   1.00800           0
      8744 MEMB     77       SAPE     H15Y     HAL2     0.900000E-01   1.00800           0
      8745 MEMB     77       SAPE     C316     CTL2    -0.180000       12.0110           0
      8746 MEMB     77       SAPE     H16X     HAL2     0.900000E-01   1.00800           0
      8747 MEMB     77       SAPE     H16Y     HAL2     0.900000E-01   1.00800           0
      8748 MEMB     77       SAPE     C317     CTL2    -0.180000       12.0110           0
      8749 MEMB     77       SAPE     H17X     HAL2     0.900000E-01   1.00800           0
      8750 MEMB     77       SAPE     H17Y     HAL2     0.900000E-01   1.00800           0
      8751 MEMB     77       SAPE     C318     CTL3    -0.270000       12.0110           0
      8752 MEMB     77       SAPE     H18X     HAL3     0.900000E-01   1.00800           0
      8753 MEMB     77       SAPE     H18Y     HAL3     0.900000E-01   1.00800           0
      8754 MEMB     77       SAPE     H18Z     HAL3     0.900000E-01   1.00800           0
      8755 MEMB     78       SAPS     N        NH3L    -0.300000       14.0070           0
      8756 MEMB     78       SAPS     HN1      HCL      0.330000       1.00800           0
      8757 MEMB     78       SAPS     HN2      HCL      0.330000       1.00800           0
      8758 MEMB     78       SAPS     HN3      HCL      0.330000       1.00800           0
      8759 MEMB     78       SAPS     C12      CTL1     0.210000       12.0110           0
      8760 MEMB     78       SAPS     H12A     HBL      0.100000       1.00800           0
      8761 MEMB     78       SAPS     C13      CCL      0.340000       12.0110           0
      8762 MEMB     78       SAPS     O13A     OCL     -0.670000       15.9994           0
      8763 MEMB     78       SAPS     O13B     OCL     -0.670000       15.9994           0
      8764 MEMB     78       SAPS     C11      CTL2    -0.800000E-01   12.0110           0
      8765 MEMB     78       SAPS     H11A     HAL2     0.900000E-01   1.00800           0
      8766 MEMB     78       SAPS     H11B     HAL2     0.900000E-01   1.00800           0
      8767 MEMB     78       SAPS     P        PL        1.50000       30.9740           0
      8768 MEMB     78       SAPS     O13      O2L     -0.780000       15.9994           0
      8769 MEMB     78       SAPS     O14      O2L     -0.780000       15.9994           0
      8770 MEMB     78       SAPS     O12      OSLP    -0.570000       15.9994           0
      8771 MEMB     78       SAPS     O11      OSLP    -0.570000       15.9994           0
      8772 MEMB     78       SAPS     C1       CTL2    -0.800000E-01   12.0110           0
      8773 MEMB     78       SAPS     HA       HAL2     0.900000E-01   1.00800           0
      8774 MEMB     78       SAPS     HB       HAL2     0.900000E-01   1.00800           0
      8775 MEMB     78       SAPS     C2       CTL1     0.170000       12.0110           0
      8776 MEMB     78       SAPS     HS       HAL1     0.900000E-01   1.00800           0
      8777 MEMB     78       SAPS     O21      OSL     -0.490000       15.9994           0
      8778 MEMB     78       SAPS     C21      CL       0.900000       12.0110           0
      8779 MEMB     78       SAPS     O22      OBL     -0.630000       15.9994           0
      8780 MEMB     78       SAPS     C22      CTL2    -0.220000       12.0110           0
      8781 MEMB     78       SAPS     H2R      HAL2     0.900000E-01   1.00800           0
      8782 MEMB     78       SAPS     H2S      HAL2     0.900000E-01   1.00800           0
      8783 MEMB     78       SAPS     C3       CTL2     0.800000E-01   12.0110           0
      8784 MEMB     78       SAPS     HX       HAL2     0.900000E-01   1.00800           0
      8785 MEMB     78       SAPS     HY       HAL2     0.900000E-01   1.00800           0
      8786 MEMB     78       SAPS     O31      OSL     -0.490000       15.9994           0
      8787 MEMB     78       SAPS     C31      CL       0.900000       12.0110           0
      8788 MEMB     78       SAPS     O32      OBL     -0.630000       15.9994           0
      8789 MEMB     78       SAPS     C32      CTL2    -0.220000       12.0110           0
      8790 MEMB     78       SAPS     H2X      HAL2     0.900000E-01   1.00800           0
      8791 MEMB     78       SAPS     H2Y      HAL2     0.900000E-01   1.00800           0
      8792 MEMB     78       SAPS     C23      CTL2    -0.180000       12.0110           0
      8793 MEMB     78       SAPS     H3R      HAL2     0.900000E-01   1.00800           0
      8794 MEMB     78       SAPS     H3S      HAL2     0.900000E-01   1.00800           0
      8795 MEMB     78       SAPS     C24      CTL2    -0.180000       12.0110           0
      8796 MEMB     78       SAPS     H4R      HAL2     0.900000E-01   1.00800           0
      8797 MEMB     78       SAPS     H4S      HAL2     0.900000E-01   1.00800           0
      8798 MEMB     78       SAPS     C25      CEL1    -0.150000       12.0110           0
      8799 MEMB     78       SAPS     H5R      HEL1     0.150000       1.00800           0
      8800 MEMB     78       SAPS     C26      CEL1    -0.150000       12.0110           0
      8801 MEMB     78       SAPS     H6R      HEL1     0.150000       1.00800           0
      8802 MEMB     78       SAPS     C27      CTL2    -0.180000       12.0110           0
      8803 MEMB     78       SAPS     H7R      HAL2     0.900000E-01   1.00800           0
      8804 MEMB     78       SAPS     H7S      HAL2     0.900000E-01   1.00800           0
      8805 MEMB     78       SAPS     C28      CEL1    -0.150000       12.0110           0
      8806 MEMB     78       SAPS     H8R      HEL1     0.150000       1.00800           0
      8807 MEMB     78       SAPS     C29      CEL1    -0.150000       12.0110           0
      8808 MEMB     78       SAPS     H9R      HEL1     0.150000       1.00800           0
      8809 MEMB     78       SAPS     C210     CTL2    -0.180000       12.0110           0
      8810 MEMB     78       SAPS     H10R     HAL2     0.900000E-01   1.00800           0
      8811 MEMB     78       SAPS     H10S     HAL2     0.900000E-01   1.00800           0
      8812 MEMB     78       SAPS     C211     CEL1    -0.150000       12.0110           0
      8813 MEMB     78       SAPS     H11R     HEL1     0.150000       1.00800           0
      8814 MEMB     78       SAPS     C212     CEL1    -0.150000       12.0110           0
      8815 MEMB     78       SAPS     H12R     HEL1     0.150000       1.00800           0
      8816 MEMB     78       SAPS     C213     CTL2    -0.180000       12.0110           0
      8817 MEMB     78       SAPS     H13R     HAL2     0.900000E-01   1.00800           0
      8818 MEMB     78       SAPS     H13S     HAL2     0.900000E-01   1.00800           0
      8819 MEMB     78       SAPS     C214     CEL1    -0.150000       12.0110           0
      8820 MEMB     78       SAPS     H14R     HEL1     0.150000       1.00800           0
      8821 MEMB     78       SAPS     C215     CEL1    -0.150000       12.0110           0
      8822 MEMB     78       SAPS     H15R     HEL1     0.150000       1.00800           0
      8823 MEMB     78       SAPS     C216     CTL2    -0.180000       12.0110           0
      8824 MEMB     78       SAPS     H16R     HAL2     0.900000E-01   1.00800           0
      8825 MEMB     78       SAPS     H16S     HAL2     0.900000E-01   1.00800           0
      8826 MEMB     78       SAPS     C217     CTL2    -0.180000       12.0110           0
      8827 MEMB     78       SAPS     H17R     HAL2     0.900000E-01   1.00800           0
      8828 MEMB     78       SAPS     H17S     HAL2     0.900000E-01   1.00800           0
      8829 MEMB     78       SAPS     C218     CTL2    -0.180000       12.0110           0
      8830 MEMB     78       SAPS     H18R     HAL2     0.900000E-01   1.00800           0
      8831 MEMB     78       SAPS     H18S     HAL2     0.900000E-01   1.00800           0
      8832 MEMB     78       SAPS     C219     CTL2    -0.180000       12.0110           0
      8833 MEMB     78       SAPS     H19R     HAL2     0.900000E-01   1.00800           0
      8834 MEMB     78       SAPS     H19S     HAL2     0.900000E-01   1.00800           0
      8835 MEMB     78       SAPS     C220     CTL3    -0.270000       12.0110           0
      8836 MEMB     78       SAPS     H20R     HAL3     0.900000E-01   1.00800           0
      8837 MEMB     78       SAPS     H20S     HAL3     0.900000E-01   1.00800           0
      8838 MEMB     78       SAPS     H20T     HAL3     0.900000E-01   1.00800           0
      8839 MEMB     78       SAPS     C33      CTL2    -0.180000       12.0110           0
      8840 MEMB     78       SAPS     H3X      HAL2     0.900000E-01   1.00800           0
      8841 MEMB     78       SAPS     H3Y      HAL2     0.900000E-01   1.00800           0
      8842 MEMB     78       SAPS     C34      CTL2    -0.180000       12.0110           0
      8843 MEMB     78       SAPS     H4X      HAL2     0.900000E-01   1.00800           0
      8844 MEMB     78       SAPS     H4Y      HAL2     0.900000E-01   1.00800           0
      8845 MEMB     78       SAPS     C35      CTL2    -0.180000       12.0110           0
      8846 MEMB     78       SAPS     H5X      HAL2     0.900000E-01   1.00800           0
      8847 MEMB     78       SAPS     H5Y      HAL2     0.900000E-01   1.00800           0
      8848 MEMB     78       SAPS     C36      CTL2    -0.180000       12.0110           0
      8849 MEMB     78       SAPS     H6X      HAL2     0.900000E-01   1.00800           0
      8850 MEMB     78       SAPS     H6Y      HAL2     0.900000E-01   1.00800           0
      8851 MEMB     78       SAPS     C37      CTL2    -0.180000       12.0110           0
      8852 MEMB     78       SAPS     H7X      HAL2     0.900000E-01   1.00800           0
      8853 MEMB     78       SAPS     H7Y      HAL2     0.900000E-01   1.00800           0
      8854 MEMB     78       SAPS     C38      CTL2    -0.180000       12.0110           0
      8855 MEMB     78       SAPS     H8X      HAL2     0.900000E-01   1.00800           0
      8856 MEMB     78       SAPS     H8Y      HAL2     0.900000E-01   1.00800           0
      8857 MEMB     78       SAPS     C39      CTL2    -0.180000       12.0110           0
      8858 MEMB     78       SAPS     H9X      HAL2     0.900000E-01   1.00800           0
      8859 MEMB     78       SAPS     H9Y      HAL2     0.900000E-01   1.00800           0
      8860 MEMB     78       SAPS     C310     CTL2    -0.180000       12.0110           0
      8861 MEMB     78       SAPS     H10X     HAL2     0.900000E-01   1.00800           0
      8862 MEMB     78       SAPS     H10Y     HAL2     0.900000E-01   1.00800           0
      8863 MEMB     78       SAPS     C311     CTL2    -0.180000       12.0110           0
      8864 MEMB     78       SAPS     H11X     HAL2     0.900000E-01   1.00800           0
      8865 MEMB     78       SAPS     H11Y     HAL2     0.900000E-01   1.00800           0
      8866 MEMB     78       SAPS     C312     CTL2    -0.180000       12.0110           0
      8867 MEMB     78       SAPS     H12X     HAL2     0.900000E-01   1.00800           0
      8868 MEMB     78       SAPS     H12Y     HAL2     0.900000E-01   1.00800           0
      8869 MEMB     78       SAPS     C313     CTL2    -0.180000       12.0110           0
      8870 MEMB     78       SAPS     H13X     HAL2     0.900000E-01   1.00800           0
      8871 MEMB     78       SAPS     H13Y     HAL2     0.900000E-01   1.00800           0
      8872 MEMB     78       SAPS     C314     CTL2    -0.180000       12.0110           0
      8873 MEMB     78       SAPS     H14X     HAL2     0.900000E-01   1.00800           0
      8874 MEMB     78       SAPS     H14Y     HAL2     0.900000E-01   1.00800           0
      8875 MEMB     78       SAPS     C315     CTL2    -0.180000       12.0110           0
      8876 MEMB     78       SAPS     H15X     HAL2     0.900000E-01   1.00800           0
      8877 MEMB     78       SAPS     H15Y     HAL2     0.900000E-01   1.00800           0
      8878 MEMB     78       SAPS     C316     CTL2    -0.180000       12.0110           0
      8879 MEMB     78       SAPS     H16X     HAL2     0.900000E-01   1.00800           0
      8880 MEMB     78       SAPS     H16Y     HAL2     0.900000E-01   1.00800           0
      8881 MEMB     78       SAPS     C317     CTL2    -0.180000       12.0110           0
      8882 MEMB     78       SAPS     H17X     HAL2     0.900000E-01   1.00800           0
      8883 MEMB     78       SAPS     H17Y     HAL2     0.900000E-01   1.00800           0
      8884 MEMB     78       SAPS     C318     CTL3    -0.270000       12.0110           0
      8885 MEMB     78       SAPS     H18X     HAL3     0.900000E-01   1.00800           0
      8886 MEMB     78       SAPS     H18Y     HAL3     0.900000E-01   1.00800           0
      8887 MEMB     78       SAPS     H18Z     HAL3     0.900000E-01   1.00800           0
      8888 MEMB     79       SAPS     N        NH3L    -0.300000       14.0070           0
      8889 MEMB     79       SAPS     HN1      HCL      0.330000       1.00800           0
      8890 MEMB     79       SAPS     HN2      HCL      0.330000       1.00800           0
      8891 MEMB     79       SAPS     HN3      HCL      0.330000       1.00800           0
      8892 MEMB     79       SAPS     C12      CTL1     0.210000       12.0110           0
      8893 MEMB     79       SAPS     H12A     HBL      0.100000       1.00800           0
      8894 MEMB     79       SAPS     C13      CCL      0.340000       12.0110           0
      8895 MEMB     79       SAPS     O13A     OCL     -0.670000       15.9994           0
      8896 MEMB     79       SAPS     O13B     OCL     -0.670000       15.9994           0
      8897 MEMB     79       SAPS     C11      CTL2    -0.800000E-01   12.0110           0
      8898 MEMB     79       SAPS     H11A     HAL2     0.900000E-01   1.00800           0
      8899 MEMB     79       SAPS     H11B     HAL2     0.900000E-01   1.00800           0
      8900 MEMB     79       SAPS     P        PL        1.50000       30.9740           0
      8901 MEMB     79       SAPS     O13      O2L     -0.780000       15.9994           0
      8902 MEMB     79       SAPS     O14      O2L     -0.780000       15.9994           0
      8903 MEMB     79       SAPS     O12      OSLP    -0.570000       15.9994           0
      8904 MEMB     79       SAPS     O11      OSLP    -0.570000       15.9994           0
      8905 MEMB     79       SAPS     C1       CTL2    -0.800000E-01   12.0110           0
      8906 MEMB     79       SAPS     HA       HAL2     0.900000E-01   1.00800           0
      8907 MEMB     79       SAPS     HB       HAL2     0.900000E-01   1.00800           0
      8908 MEMB     79       SAPS     C2       CTL1     0.170000       12.0110           0
      8909 MEMB     79       SAPS     HS       HAL1     0.900000E-01   1.00800           0
      8910 MEMB     79       SAPS     O21      OSL     -0.490000       15.9994           0
      8911 MEMB     79       SAPS     C21      CL       0.900000       12.0110           0
      8912 MEMB     79       SAPS     O22      OBL     -0.630000       15.9994           0
      8913 MEMB     79       SAPS     C22      CTL2    -0.220000       12.0110           0
      8914 MEMB     79       SAPS     H2R      HAL2     0.900000E-01   1.00800           0
      8915 MEMB     79       SAPS     H2S      HAL2     0.900000E-01   1.00800           0
      8916 MEMB     79       SAPS     C3       CTL2     0.800000E-01   12.0110           0
      8917 MEMB     79       SAPS     HX       HAL2     0.900000E-01   1.00800           0
      8918 MEMB     79       SAPS     HY       HAL2     0.900000E-01   1.00800           0
      8919 MEMB     79       SAPS     O31      OSL     -0.490000       15.9994           0
      8920 MEMB     79       SAPS     C31      CL       0.900000       12.0110           0
      8921 MEMB     79       SAPS     O32      OBL     -0.630000       15.9994           0
      8922 MEMB     79       SAPS     C32      CTL2    -0.220000       12.0110           0
      8923 MEMB     79       SAPS     H2X      HAL2     0.900000E-01   1.00800           0
      8924 MEMB     79       SAPS     H2Y      HAL2     0.900000E-01   1.00800           0
      8925 MEMB     79       SAPS     C23      CTL2    -0.180000       12.0110           0
      8926 MEMB     79       SAPS     H3R      HAL2     0.900000E-01   1.00800           0
      8927 MEMB     79       SAPS     H3S      HAL2     0.900000E-01   1.00800           0
      8928 MEMB     79       SAPS     C24      CTL2    -0.180000       12.0110           0
      8929 MEMB     79       SAPS     H4R      HAL2     0.900000E-01   1.00800           0
      8930 MEMB     79       SAPS     H4S      HAL2     0.900000E-01   1.00800           0
      8931 MEMB     79       SAPS     C25      CEL1    -0.150000       12.0110           0
      8932 MEMB     79       SAPS     H5R      HEL1     0.150000       1.00800           0
      8933 MEMB     79       SAPS     C26      CEL1    -0.150000       12.0110           0
      8934 MEMB     79       SAPS     H6R      HEL1     0.150000       1.00800           0
      8935 MEMB     79       SAPS     C27      CTL2    -0.180000       12.0110           0
      8936 MEMB     79       SAPS     H7R      HAL2     0.900000E-01   1.00800           0
      8937 MEMB     79       SAPS     H7S      HAL2     0.900000E-01   1.00800           0
      8938 MEMB     79       SAPS     C28      CEL1    -0.150000       12.0110           0
      8939 MEMB     79       SAPS     H8R      HEL1     0.150000       1.00800           0
      8940 MEMB     79       SAPS     C29      CEL1    -0.150000       12.0110           0
      8941 MEMB     79       SAPS     H9R      HEL1     0.150000       1.00800           0
      8942 MEMB     79       SAPS     C210     CTL2    -0.180000       12.0110           0
      8943 MEMB     79       SAPS     H10R     HAL2     0.900000E-01   1.00800           0
      8944 MEMB     79       SAPS     H10S     HAL2     0.900000E-01   1.00800           0
      8945 MEMB     79       SAPS     C211     CEL1    -0.150000       12.0110           0
      8946 MEMB     79       SAPS     H11R     HEL1     0.150000       1.00800           0
      8947 MEMB     79       SAPS     C212     CEL1    -0.150000       12.0110           0
      8948 MEMB     79       SAPS     H12R     HEL1     0.150000       1.00800           0
      8949 MEMB     79       SAPS     C213     CTL2    -0.180000       12.0110           0
      8950 MEMB     79       SAPS     H13R     HAL2     0.900000E-01   1.00800           0
      8951 MEMB     79       SAPS     H13S     HAL2     0.900000E-01   1.00800           0
      8952 MEMB     79       SAPS     C214     CEL1    -0.150000       12.0110           0
      8953 MEMB     79       SAPS     H14R     HEL1     0.150000       1.00800           0
      8954 MEMB     79       SAPS     C215     CEL1    -0.150000       12.0110           0
      8955 MEMB     79       SAPS     H15R     HEL1     0.150000       1.00800           0
      8956 MEMB     79       SAPS     C216     CTL2    -0.180000       12.0110           0
      8957 MEMB     79       SAPS     H16R     HAL2     0.900000E-01   1.00800           0
      8958 MEMB     79       SAPS     H16S     HAL2     0.900000E-01   1.00800           0
      8959 MEMB     79       SAPS     C217     CTL2    -0.180000       12.0110           0
      8960 MEMB     79       SAPS     H17R     HAL2     0.900000E-01   1.00800           0
      8961 MEMB     79       SAPS     H17S     HAL2     0.900000E-01   1.00800           0
      8962 MEMB     79       SAPS     C218     CTL2    -0.180000       12.0110           0
      8963 MEMB     79       SAPS     H18R     HAL2     0.900000E-01   1.00800           0
      8964 MEMB     79       SAPS     H18S     HAL2     0.900000E-01   1.00800           0
      8965 MEMB     79       SAPS     C219     CTL2    -0.180000       12.0110           0
      8966 MEMB     79       SAPS     H19R     HAL2     0.900000E-01   1.00800           0
      8967 MEMB     79       SAPS     H19S     HAL2     0.900000E-01   1.00800           0
      8968 MEMB     79       SAPS     C220     CTL3    -0.270000       12.0110           0
      8969 MEMB     79       SAPS     H20R     HAL3     0.900000E-01   1.00800           0
      8970 MEMB     79       SAPS     H20S     HAL3     0.900000E-01   1.00800           0
      8971 MEMB     79       SAPS     H20T     HAL3     0.900000E-01   1.00800           0
      8972 MEMB     79       SAPS     C33      CTL2    -0.180000       12.0110           0
      8973 MEMB     79       SAPS     H3X      HAL2     0.900000E-01   1.00800           0
      8974 MEMB     79       SAPS     H3Y      HAL2     0.900000E-01   1.00800           0
      8975 MEMB     79       SAPS     C34      CTL2    -0.180000       12.0110           0
      8976 MEMB     79       SAPS     H4X      HAL2     0.900000E-01   1.00800           0
      8977 MEMB     79       SAPS     H4Y      HAL2     0.900000E-01   1.00800           0
      8978 MEMB     79       SAPS     C35      CTL2    -0.180000       12.0110           0
      8979 MEMB     79       SAPS     H5X      HAL2     0.900000E-01   1.00800           0
      8980 MEMB     79       SAPS     H5Y      HAL2     0.900000E-01   1.00800           0
      8981 MEMB     79       SAPS     C36      CTL2    -0.180000       12.0110           0
      8982 MEMB     79       SAPS     H6X      HAL2     0.900000E-01   1.00800           0
      8983 MEMB     79       SAPS     H6Y      HAL2     0.900000E-01   1.00800           0
      8984 MEMB     79       SAPS     C37      CTL2    -0.180000       12.0110           0
      8985 MEMB     79       SAPS     H7X      HAL2     0.900000E-01   1.00800           0
      8986 MEMB     79       SAPS     H7Y      HAL2     0.900000E-01   1.00800           0
      8987 MEMB     79       SAPS     C38      CTL2    -0.180000       12.0110           0
      8988 MEMB     79       SAPS     H8X      HAL2     0.900000E-01   1.00800           0
      8989 MEMB     79       SAPS     H8Y      HAL2     0.900000E-01   1.00800           0
      8990 MEMB     79       SAPS     C39      CTL2    -0.180000       12.0110           0
      8991 MEMB     79       SAPS     H9X      HAL2     0.900000E-01   1.00800           0
      8992 MEMB     79       SAPS     H9Y      HAL2     0.900000E-01   1.00800           0
      8993 MEMB     79       SAPS     C310     CTL2    -0.180000       12.0110           0
      8994 MEMB     79       SAPS     H10X     HAL2     0.900000E-01   1.00800           0
      8995 MEMB     79       SAPS     H10Y     HAL2     0.900000E-01   1.00800           0
      8996 MEMB     79       SAPS     C311     CTL2    -0.180000       12.0110           0
      8997 MEMB     79       SAPS     H11X     HAL2     0.900000E-01   1.00800           0
      8998 MEMB     79       SAPS     H11Y     HAL2     0.900000E-01   1.00800           0
      8999 MEMB     79       SAPS     C312     CTL2    -0.180000       12.0110           0
      9000 MEMB     79       SAPS     H12X     HAL2     0.900000E-01   1.00800           0
      9001 MEMB     79       SAPS     H12Y     HAL2     0.900000E-01   1.00800           0
      9002 MEMB     79       SAPS     C313     CTL2    -0.180000       12.0110           0
      9003 MEMB     79       SAPS     H13X     HAL2     0.900000E-01   1.00800           0
      9004 MEMB     79       SAPS     H13Y     HAL2     0.900000E-01   1.00800           0
      9005 MEMB     79       SAPS     C314     CTL2    -0.180000       12.0110           0
      9006 MEMB     79       SAPS     H14X     HAL2     0.900000E-01   1.00800           0
      9007 MEMB     79       SAPS     H14Y     HAL2     0.900000E-01   1.00800           0
      9008 MEMB     79       SAPS     C315     CTL2    -0.180000       12.0110           0
      9009 MEMB     79       SAPS     H15X     HAL2     0.900000E-01   1.00800           0
      9010 MEMB     79       SAPS     H15Y     HAL2     0.900000E-01   1.00800           0
      9011 MEMB     79       SAPS     C316     CTL2    -0.180000       12.0110           0
      9012 MEMB     79       SAPS     H16X     HAL2     0.900000E-01   1.00800           0
      9013 MEMB     79       SAPS     H16Y     HAL2     0.900000E-01   1.00800           0
      9014 MEMB     79       SAPS     C317     CTL2    -0.180000       12.0110           0
      9015 MEMB     79       SAPS     H17X     HAL2     0.900000E-01   1.00800           0
      9016 MEMB     79       SAPS     H17Y     HAL2     0.900000E-01   1.00800           0
      9017 MEMB     79       SAPS     C318     CTL3    -0.270000       12.0110           0
      9018 MEMB     79       SAPS     H18X     HAL3     0.900000E-01   1.00800           0
      9019 MEMB     79       SAPS     H18Y     HAL3     0.900000E-01   1.00800           0
      9020 MEMB     79       SAPS     H18Z     HAL3     0.900000E-01   1.00800           0
      9021 MEMB     80       SAPC     N        NTL     -0.600000       14.0070           0
      9022 MEMB     80       SAPC     C12      CTL2    -0.100000       12.0110           0
      9023 MEMB     80       SAPC     H12A     HL       0.250000       1.00800           0
      9024 MEMB     80       SAPC     H12B     HL       0.250000       1.00800           0
      9025 MEMB     80       SAPC     C13      CTL5    -0.350000       12.0110           0
      9026 MEMB     80       SAPC     H13A     HL       0.250000       1.00800           0
      9027 MEMB     80       SAPC     H13B     HL       0.250000       1.00800           0
      9028 MEMB     80       SAPC     H13C     HL       0.250000       1.00800           0
      9029 MEMB     80       SAPC     C14      CTL5    -0.350000       12.0110           0
      9030 MEMB     80       SAPC     H14A     HL       0.250000       1.00800           0
      9031 MEMB     80       SAPC     H14B     HL       0.250000       1.00800           0
      9032 MEMB     80       SAPC     H14C     HL       0.250000       1.00800           0
      9033 MEMB     80       SAPC     C15      CTL5    -0.350000       12.0110           0
      9034 MEMB     80       SAPC     H15A     HL       0.250000       1.00800           0
      9035 MEMB     80       SAPC     H15B     HL       0.250000       1.00800           0
      9036 MEMB     80       SAPC     H15C     HL       0.250000       1.00800           0
      9037 MEMB     80       SAPC     C11      CTL2    -0.800000E-01   12.0110           0
      9038 MEMB     80       SAPC     H11A     HAL2     0.900000E-01   1.00800           0
      9039 MEMB     80       SAPC     H11B     HAL2     0.900000E-01   1.00800           0
      9040 MEMB     80       SAPC     P        PL        1.50000       30.9740           0
      9041 MEMB     80       SAPC     O13      O2L     -0.780000       15.9994           0
      9042 MEMB     80       SAPC     O14      O2L     -0.780000       15.9994           0
      9043 MEMB     80       SAPC     O12      OSLP    -0.570000       15.9994           0
      9044 MEMB     80       SAPC     O11      OSLP    -0.570000       15.9994           0
      9045 MEMB     80       SAPC     C1       CTL2    -0.800000E-01   12.0110           0
      9046 MEMB     80       SAPC     HA       HAL2     0.900000E-01   1.00800           0
      9047 MEMB     80       SAPC     HB       HAL2     0.900000E-01   1.00800           0
      9048 MEMB     80       SAPC     C2       CTL1     0.170000       12.0110           0
      9049 MEMB     80       SAPC     HS       HAL1     0.900000E-01   1.00800           0
      9050 MEMB     80       SAPC     O21      OSL     -0.490000       15.9994           0
      9051 MEMB     80       SAPC     C21      CL       0.900000       12.0110           0
      9052 MEMB     80       SAPC     O22      OBL     -0.630000       15.9994           0
      9053 MEMB     80       SAPC     C22      CTL2    -0.220000       12.0110           0
      9054 MEMB     80       SAPC     H2R      HAL2     0.900000E-01   1.00800           0
      9055 MEMB     80       SAPC     H2S      HAL2     0.900000E-01   1.00800           0
      9056 MEMB     80       SAPC     C3       CTL2     0.800000E-01   12.0110           0
      9057 MEMB     80       SAPC     HX       HAL2     0.900000E-01   1.00800           0
      9058 MEMB     80       SAPC     HY       HAL2     0.900000E-01   1.00800           0
      9059 MEMB     80       SAPC     O31      OSL     -0.490000       15.9994           0
      9060 MEMB     80       SAPC     C31      CL       0.900000       12.0110           0
      9061 MEMB     80       SAPC     O32      OBL     -0.630000       15.9994           0
      9062 MEMB     80       SAPC     C32      CTL2    -0.220000       12.0110           0
      9063 MEMB     80       SAPC     H2X      HAL2     0.900000E-01   1.00800           0
      9064 MEMB     80       SAPC     H2Y      HAL2     0.900000E-01   1.00800           0
      9065 MEMB     80       SAPC     C23      CTL2    -0.180000       12.0110           0
      9066 MEMB     80       SAPC     H3R      HAL2     0.900000E-01   1.00800           0
      9067 MEMB     80       SAPC     H3S      HAL2     0.900000E-01   1.00800           0
      9068 MEMB     80       SAPC     C24      CTL2    -0.180000       12.0110           0
      9069 MEMB     80       SAPC     H4R      HAL2     0.900000E-01   1.00800           0
      9070 MEMB     80       SAPC     H4S      HAL2     0.900000E-01   1.00800           0
      9071 MEMB     80       SAPC     C25      CEL1    -0.150000       12.0110           0
      9072 MEMB     80       SAPC     H5R      HEL1     0.150000       1.00800           0
      9073 MEMB     80       SAPC     C26      CEL1    -0.150000       12.0110           0
      9074 MEMB     80       SAPC     H6R      HEL1     0.150000       1.00800           0
      9075 MEMB     80       SAPC     C27      CTL2    -0.180000       12.0110           0
      9076 MEMB     80       SAPC     H7R      HAL2     0.900000E-01   1.00800           0
      9077 MEMB     80       SAPC     H7S      HAL2     0.900000E-01   1.00800           0
      9078 MEMB     80       SAPC     C28      CEL1    -0.150000       12.0110           0
      9079 MEMB     80       SAPC     H8R      HEL1     0.150000       1.00800           0
      9080 MEMB     80       SAPC     C29      CEL1    -0.150000       12.0110           0
      9081 MEMB     80       SAPC     H9R      HEL1     0.150000       1.00800           0
      9082 MEMB     80       SAPC     C210     CTL2    -0.180000       12.0110           0
      9083 MEMB     80       SAPC     H10R     HAL2     0.900000E-01   1.00800           0
      9084 MEMB     80       SAPC     H10S     HAL2     0.900000E-01   1.00800           0
      9085 MEMB     80       SAPC     C211     CEL1    -0.150000       12.0110           0
      9086 MEMB     80       SAPC     H11R     HEL1     0.150000       1.00800           0
      9087 MEMB     80       SAPC     C212     CEL1    -0.150000       12.0110           0
      9088 MEMB     80       SAPC     H12R     HEL1     0.150000       1.00800           0
      9089 MEMB     80       SAPC     C213     CTL2    -0.180000       12.0110           0
      9090 MEMB     80       SAPC     H13R     HAL2     0.900000E-01   1.00800           0
      9091 MEMB     80       SAPC     H13S     HAL2     0.900000E-01   1.00800           0
      9092 MEMB     80       SAPC     C214     CEL1    -0.150000       12.0110           0
      9093 MEMB     80       SAPC     H14R     HEL1     0.150000       1.00800           0
      9094 MEMB     80       SAPC     C215     CEL1    -0.150000       12.0110           0
      9095 MEMB     80       SAPC     H15R     HEL1     0.150000       1.00800           0
      9096 MEMB     80       SAPC     C216     CTL2    -0.180000       12.0110           0
      9097 MEMB     80       SAPC     H16R     HAL2     0.900000E-01   1.00800           0
      9098 MEMB     80       SAPC     H16S     HAL2     0.900000E-01   1.00800           0
      9099 MEMB     80       SAPC     C217     CTL2    -0.180000       12.0110           0
      9100 MEMB     80       SAPC     H17R     HAL2     0.900000E-01   1.00800           0
      9101 MEMB     80       SAPC     H17S     HAL2     0.900000E-01   1.00800           0
      9102 MEMB     80       SAPC     C218     CTL2    -0.270000       12.0110           0
      9103 MEMB     80       SAPC     H18R     HAL2     0.900000E-01   1.00800           0
      9104 MEMB     80       SAPC     H18S     HAL2     0.900000E-01   1.00800           0
      9105 MEMB     80       SAPC     C219     CTL2    -0.180000       12.0110           0
      9106 MEMB     80       SAPC     H19R     HAL2     0.900000E-01   1.00800           0
      9107 MEMB     80       SAPC     H19S     HAL2     0.900000E-01   1.00800           0
      9108 MEMB     80       SAPC     C220     CTL3    -0.180000       12.0110           0
      9109 MEMB     80       SAPC     H20R     HAL3     0.900000E-01   1.00800           0
      9110 MEMB     80       SAPC     H20S     HAL3     0.900000E-01   1.00800           0
      9111 MEMB     80       SAPC     H20T     HAL3     0.900000E-01   1.00800           0
      9112 MEMB     80       SAPC     C33      CTL2    -0.180000       12.0110           0
      9113 MEMB     80       SAPC     H3X      HAL2     0.900000E-01   1.00800           0
      9114 MEMB     80       SAPC     H3Y      HAL2     0.900000E-01   1.00800           0
      9115 MEMB     80       SAPC     C34      CTL2    -0.180000       12.0110           0
      9116 MEMB     80       SAPC     H4X      HAL2     0.900000E-01   1.00800           0
      9117 MEMB     80       SAPC     H4Y      HAL2     0.900000E-01   1.00800           0
      9118 MEMB     80       SAPC     C35      CTL2    -0.180000       12.0110           0
      9119 MEMB     80       SAPC     H5X      HAL2     0.900000E-01   1.00800           0
      9120 MEMB     80       SAPC     H5Y      HAL2     0.900000E-01   1.00800           0
      9121 MEMB     80       SAPC     C36      CTL2    -0.180000       12.0110           0
      9122 MEMB     80       SAPC     H6X      HAL2     0.900000E-01   1.00800           0
      9123 MEMB     80       SAPC     H6Y      HAL2     0.900000E-01   1.00800           0
      9124 MEMB     80       SAPC     C37      CTL2    -0.180000       12.0110           0
      9125 MEMB     80       SAPC     H7X      HAL2     0.900000E-01   1.00800           0
      9126 MEMB     80       SAPC     H7Y      HAL2     0.900000E-01   1.00800           0
      9127 MEMB     80       SAPC     C38      CTL2    -0.180000       12.0110           0
      9128 MEMB     80       SAPC     H8X      HAL2     0.900000E-01   1.00800           0
      9129 MEMB     80       SAPC     H8Y      HAL2     0.900000E-01   1.00800           0
      9130 MEMB     80       SAPC     C39      CTL2    -0.180000       12.0110           0
      9131 MEMB     80       SAPC     H9X      HAL2     0.900000E-01   1.00800           0
      9132 MEMB     80       SAPC     H9Y      HAL2     0.900000E-01   1.00800           0
      9133 MEMB     80       SAPC     C310     CTL2    -0.180000       12.0110           0
      9134 MEMB     80       SAPC     H10X     HAL2     0.900000E-01   1.00800           0
      9135 MEMB     80       SAPC     H10Y     HAL2     0.900000E-01   1.00800           0
      9136 MEMB     80       SAPC     C311     CTL2    -0.180000       12.0110           0
      9137 MEMB     80       SAPC     H11X     HAL2     0.900000E-01   1.00800           0
      9138 MEMB     80       SAPC     H11Y     HAL2     0.900000E-01   1.00800           0
      9139 MEMB     80       SAPC     C312     CTL2    -0.180000       12.0110           0
      9140 MEMB     80       SAPC     H12X     HAL2     0.900000E-01   1.00800           0
      9141 MEMB     80       SAPC     H12Y     HAL2     0.900000E-01   1.00800           0
      9142 MEMB     80       SAPC     C313     CTL2    -0.180000       12.0110           0
      9143 MEMB     80       SAPC     H13X     HAL2     0.900000E-01   1.00800           0
      9144 MEMB     80       SAPC     H13Y     HAL2     0.900000E-01   1.00800           0
      9145 MEMB     80       SAPC     C314     CTL2    -0.180000       12.0110           0
      9146 MEMB     80       SAPC     H14X     HAL2     0.900000E-01   1.00800           0
      9147 MEMB     80       SAPC     H14Y     HAL2     0.900000E-01   1.00800           0
      9148 MEMB     80       SAPC     C315     CTL2    -0.180000       12.0110           0
      9149 MEMB     80       SAPC     H15X     HAL2     0.900000E-01   1.00800           0
      9150 MEMB     80       SAPC     H15Y     HAL2     0.900000E-01   1.00800           0
      9151 MEMB     80       SAPC     C316     CTL2    -0.180000       12.0110           0
      9152 MEMB     80       SAPC     H16X     HAL2     0.900000E-01   1.00800           0
      9153 MEMB     80       SAPC     H16Y     HAL2     0.900000E-01   1.00800           0
      9154 MEMB     80       SAPC     C317     CTL2    -0.180000       12.0110           0
      9155 MEMB     80       SAPC     H17X     HAL2     0.900000E-01   1.00800           0
      9156 MEMB     80       SAPC     H17Y     HAL2     0.900000E-01   1.00800           0
      9157 MEMB     80       SAPC     C318     CTL3    -0.270000       12.0110           0
      9158 MEMB     80       SAPC     H18X     HAL3     0.900000E-01   1.00800           0
      9159 MEMB     80       SAPC     H18Y     HAL3     0.900000E-01   1.00800           0
      9160 MEMB     80       SAPC     H18Z     HAL3     0.900000E-01   1.00800           0
      9161 MEMB     81       OSM      N        NTL     -0.600000       14.0070           0
      9162 MEMB     81       OSM      C15      CTL5    -0.350000       12.0110           0
      9163 MEMB     81       OSM      H15A     HL       0.250000       1.00800           0
      9164 MEMB     81       OSM      H15B     HL       0.250000       1.00800           0
      9165 MEMB     81       OSM      H15C     HL       0.250000       1.00800           0
      9166 MEMB     81       OSM      C14      CTL5    -0.350000       12.0110           0
      9167 MEMB     81       OSM      H14A     HL       0.250000       1.00800           0
      9168 MEMB     81       OSM      H14B     HL       0.250000       1.00800           0
      9169 MEMB     81       OSM      H14C     HL       0.250000       1.00800           0
      9170 MEMB     81       OSM      C13      CTL5    -0.350000       12.0110           0
      9171 MEMB     81       OSM      H13A     HL       0.250000       1.00800           0
      9172 MEMB     81       OSM      H13B     HL       0.250000       1.00800           0
      9173 MEMB     81       OSM      H13C     HL       0.250000       1.00800           0
      9174 MEMB     81       OSM      C12      CTL2    -0.100000       12.0110           0
      9175 MEMB     81       OSM      H12A     HL       0.250000       1.00800           0
      9176 MEMB     81       OSM      H12B     HL       0.250000       1.00800           0
      9177 MEMB     81       OSM      C11      CTL2    -0.800000E-01   12.0110           0
      9178 MEMB     81       OSM      H11A     HAL2     0.900000E-01   1.00800           0
      9179 MEMB     81       OSM      H11B     HAL2     0.900000E-01   1.00800           0
      9180 MEMB     81       OSM      P        PL        1.50000       30.9740           0
      9181 MEMB     81       OSM      O13      O2L     -0.780000       15.9994           0
      9182 MEMB     81       OSM      O14      O2L     -0.780000       15.9994           0
      9183 MEMB     81       OSM      O11      OSLP    -0.570000       15.9994           0
      9184 MEMB     81       OSM      O12      OSLP    -0.570000       15.9994           0
      9185 MEMB     81       OSM      C1S      CTL2    -0.800000E-01   12.0110           0
      9186 MEMB     81       OSM      H1S      HAL2     0.900000E-01   1.00800           0
      9187 MEMB     81       OSM      H1T      HAL2     0.900000E-01   1.00800           0
      9188 MEMB     81       OSM      NF       NHL     -0.700000       14.0070           0
      9189 MEMB     81       OSM      HNF      H        0.350000       1.00800           0
      9190 MEMB     81       OSM      C2S      CTL1     0.300000       12.0110           0
      9191 MEMB     81       OSM      H2S      HAL1     0.500000E-01   1.00800           0
      9192 MEMB     81       OSM      C3S      CTO1     0.500000       12.0110           0
      9193 MEMB     81       OSM      H3S      HAL1    -0.110000       1.00800           0
      9194 MEMB     81       OSM      O3       OHL     -0.690000       15.9994           0
      9195 MEMB     81       OSM      HO3      HOL      0.300000       1.00800           0
      9196 MEMB     81       OSM      C4S      CEL3    -0.150000       12.0110           0
      9197 MEMB     81       OSM      H4S      HEL1     0.150000       1.00800           0
      9198 MEMB     81       OSM      C5S      CEL3    -0.150000       12.0110           0
      9199 MEMB     81       OSM      H5S      HEL1     0.150000       1.00800           0
      9200 MEMB     81       OSM      C6S      CTL2    -0.180000       12.0110           0
      9201 MEMB     81       OSM      H6S      HAL2     0.900000E-01   1.00800           0
      9202 MEMB     81       OSM      H6T      HAL2     0.900000E-01   1.00800           0
      9203 MEMB     81       OSM      C7S      CTL2    -0.180000       12.0110           0
      9204 MEMB     81       OSM      H7S      HAL2     0.900000E-01   1.00800           0
      9205 MEMB     81       OSM      H7T      HAL2     0.900000E-01   1.00800           0
      9206 MEMB     81       OSM      C8S      CTL2    -0.180000       12.0110           0
      9207 MEMB     81       OSM      H8S      HAL2     0.900000E-01   1.00800           0
      9208 MEMB     81       OSM      H8T      HAL2     0.900000E-01   1.00800           0
      9209 MEMB     81       OSM      C9S      CTL2    -0.180000       12.0110           0
      9210 MEMB     81       OSM      H9S      HAL2     0.900000E-01   1.00800           0
      9211 MEMB     81       OSM      H9T      HAL2     0.900000E-01   1.00800           0
      9212 MEMB     81       OSM      C10S     CTL2    -0.180000       12.0110           0
      9213 MEMB     81       OSM      H10S     HAL2     0.900000E-01   1.00800           0
      9214 MEMB     81       OSM      H10T     HAL2     0.900000E-01   1.00800           0
      9215 MEMB     81       OSM      C11S     CTL2    -0.180000       12.0110           0
      9216 MEMB     81       OSM      H11S     HAL2     0.900000E-01   1.00800           0
      9217 MEMB     81       OSM      H11T     HAL2     0.900000E-01   1.00800           0
      9218 MEMB     81       OSM      C12S     CTL2    -0.180000       12.0110           0
      9219 MEMB     81       OSM      H12S     HAL2     0.900000E-01   1.00800           0
      9220 MEMB     81       OSM      H12T     HAL2     0.900000E-01   1.00800           0
      9221 MEMB     81       OSM      C13S     CTL2    -0.180000       12.0110           0
      9222 MEMB     81       OSM      H13S     HAL2     0.900000E-01   1.00800           0
      9223 MEMB     81       OSM      H13T     HAL2     0.900000E-01   1.00800           0
      9224 MEMB     81       OSM      C14S     CTL2    -0.180000       12.0110           0
      9225 MEMB     81       OSM      H14S     HAL2     0.900000E-01   1.00800           0
      9226 MEMB     81       OSM      H14T     HAL2     0.900000E-01   1.00800           0
      9227 MEMB     81       OSM      C15S     CTL2    -0.180000       12.0110           0
      9228 MEMB     81       OSM      H15S     HAL2     0.900000E-01   1.00800           0
      9229 MEMB     81       OSM      H15T     HAL2     0.900000E-01   1.00800           0
      9230 MEMB     81       OSM      C16S     CTL2    -0.180000       12.0110           0
      9231 MEMB     81       OSM      H16S     HAL2     0.900000E-01   1.00800           0
      9232 MEMB     81       OSM      H16T     HAL2     0.900000E-01   1.00800           0
      9233 MEMB     81       OSM      C17S     CTL2    -0.180000       12.0110           0
      9234 MEMB     81       OSM      H17S     HAL2     0.900000E-01   1.00800           0
      9235 MEMB     81       OSM      H17T     HAL2     0.900000E-01   1.00800           0
      9236 MEMB     81       OSM      C18S     CTL3    -0.270000       12.0110           0
      9237 MEMB     81       OSM      H18S     HAL3     0.900000E-01   1.00800           0
      9238 MEMB     81       OSM      H18T     HAL3     0.900000E-01   1.00800           0
      9239 MEMB     81       OSM      H18U     HAL3     0.900000E-01   1.00800           0
      9240 MEMB     81       OSM      C1F      C        0.550000       12.0110           0
      9241 MEMB     81       OSM      OF       O       -0.600000       15.9994           0
      9242 MEMB     81       OSM      C2F      CTL2    -0.700000E-01   12.0110           0
      9243 MEMB     81       OSM      H2F      HAL2     0.600000E-01   1.00800           0
      9244 MEMB     81       OSM      H2G      HAL2     0.600000E-01   1.00800           0
      9245 MEMB     81       OSM      C3F      CTL2    -0.180000       12.0110           0
      9246 MEMB     81       OSM      H3F      HAL2     0.900000E-01   1.00800           0
      9247 MEMB     81       OSM      H3G      HAL2     0.900000E-01   1.00800           0
      9248 MEMB     81       OSM      C4F      CTL2    -0.180000       12.0110           0
      9249 MEMB     81       OSM      H4F      HAL2     0.900000E-01   1.00800           0
      9250 MEMB     81       OSM      H4G      HAL2     0.900000E-01   1.00800           0
      9251 MEMB     81       OSM      C5F      CTL2    -0.180000       12.0110           0
      9252 MEMB     81       OSM      H5F      HAL2     0.900000E-01   1.00800           0
      9253 MEMB     81       OSM      H5G      HAL2     0.900000E-01   1.00800           0
      9254 MEMB     81       OSM      C6F      CTL2    -0.180000       12.0110           0
      9255 MEMB     81       OSM      H6F      HAL2     0.900000E-01   1.00800           0
      9256 MEMB     81       OSM      H6G      HAL2     0.900000E-01   1.00800           0
      9257 MEMB     81       OSM      C7F      CTL2    -0.180000       12.0110           0
      9258 MEMB     81       OSM      H7F      HAL2     0.900000E-01   1.00800           0
      9259 MEMB     81       OSM      H7G      HAL2     0.900000E-01   1.00800           0
      9260 MEMB     81       OSM      C8F      CTL2    -0.180000       12.0110           0
      9261 MEMB     81       OSM      H8F      HAL2     0.900000E-01   1.00800           0
      9262 MEMB     81       OSM      H8G      HAL2     0.900000E-01   1.00800           0
      9263 MEMB     81       OSM      C9F      CEL1    -0.150000       12.0110           0
      9264 MEMB     81       OSM      H9F      HEL1     0.150000       1.00800           0
      9265 MEMB     81       OSM      C10F     CEL1    -0.150000       12.0110           0
      9266 MEMB     81       OSM      H10F     HEL1     0.150000       1.00800           0
      9267 MEMB     81       OSM      C11F     CTL2    -0.180000       12.0110           0
      9268 MEMB     81       OSM      H11F     HAL2     0.900000E-01   1.00800           0
      9269 MEMB     81       OSM      H11G     HAL2     0.900000E-01   1.00800           0
      9270 MEMB     81       OSM      C12F     CTL2    -0.180000       12.0110           0
      9271 MEMB     81       OSM      H12F     HAL2     0.900000E-01   1.00800           0
      9272 MEMB     81       OSM      H12G     HAL2     0.900000E-01   1.00800           0
      9273 MEMB     81       OSM      C13F     CTL2    -0.180000       12.0110           0
      9274 MEMB     81       OSM      H13F     HAL2     0.900000E-01   1.00800           0
      9275 MEMB     81       OSM      H13G     HAL2     0.900000E-01   1.00800           0
      9276 MEMB     81       OSM      C14F     CTL2    -0.180000       12.0110           0
      9277 MEMB     81       OSM      H14F     HAL2     0.900000E-01   1.00800           0
      9278 MEMB     81       OSM      H14G     HAL2     0.900000E-01   1.00800           0
      9279 MEMB     81       OSM      C15F     CTL2    -0.180000       12.0110           0
      9280 MEMB     81       OSM      H15F     HAL2     0.900000E-01   1.00800           0
      9281 MEMB     81       OSM      H15G     HAL2     0.900000E-01   1.00800           0
      9282 MEMB     81       OSM      C16F     CTL2    -0.180000       12.0110           0
      9283 MEMB     81       OSM      H16F     HAL2     0.900000E-01   1.00800           0
      9284 MEMB     81       OSM      H16G     HAL2     0.900000E-01   1.00800           0
      9285 MEMB     81       OSM      C17F     CTL2    -0.180000       12.0110           0
      9286 MEMB     81       OSM      H17F     HAL2     0.900000E-01   1.00800           0
      9287 MEMB     81       OSM      H17G     HAL2     0.900000E-01   1.00800           0
      9288 MEMB     81       OSM      C18F     CTL3    -0.270000       12.0110           0
      9289 MEMB     81       OSM      H18F     HAL3     0.900000E-01   1.00800           0
      9290 MEMB     81       OSM      H18G     HAL3     0.900000E-01   1.00800           0
      9291 MEMB     81       OSM      H18H     HAL3     0.900000E-01   1.00800           0
      9292 MEMB     82       SAPE     N        NH3L    -0.300000       14.0070           0
      9293 MEMB     82       SAPE     HN1      HCL      0.330000       1.00800           0
      9294 MEMB     82       SAPE     HN2      HCL      0.330000       1.00800           0
      9295 MEMB     82       SAPE     HN3      HCL      0.330000       1.00800           0
      9296 MEMB     82       SAPE     C12      CTL2     0.130000       12.0110           0
      9297 MEMB     82       SAPE     H12A     HAL2     0.900000E-01   1.00800           0
      9298 MEMB     82       SAPE     H12B     HAL2     0.900000E-01   1.00800           0
      9299 MEMB     82       SAPE     C11      CTL2    -0.800000E-01   12.0110           0
      9300 MEMB     82       SAPE     H11A     HAL2     0.900000E-01   1.00800           0
      9301 MEMB     82       SAPE     H11B     HAL2     0.900000E-01   1.00800           0
      9302 MEMB     82       SAPE     P        PL        1.50000       30.9740           0
      9303 MEMB     82       SAPE     O13      O2L     -0.780000       15.9994           0
      9304 MEMB     82       SAPE     O14      O2L     -0.780000       15.9994           0
      9305 MEMB     82       SAPE     O12      OSLP    -0.570000       15.9994           0
      9306 MEMB     82       SAPE     O11      OSLP    -0.570000       15.9994           0
      9307 MEMB     82       SAPE     C1       CTL2    -0.800000E-01   12.0110           0
      9308 MEMB     82       SAPE     HA       HAL2     0.900000E-01   1.00800           0
      9309 MEMB     82       SAPE     HB       HAL2     0.900000E-01   1.00800           0
      9310 MEMB     82       SAPE     C2       CTL1     0.170000       12.0110           0
      9311 MEMB     82       SAPE     HS       HAL1     0.900000E-01   1.00800           0
      9312 MEMB     82       SAPE     O21      OSL     -0.490000       15.9994           0
      9313 MEMB     82       SAPE     C21      CL       0.900000       12.0110           0
      9314 MEMB     82       SAPE     O22      OBL     -0.630000       15.9994           0
      9315 MEMB     82       SAPE     C22      CTL2    -0.220000       12.0110           0
      9316 MEMB     82       SAPE     H2R      HAL2     0.900000E-01   1.00800           0
      9317 MEMB     82       SAPE     H2S      HAL2     0.900000E-01   1.00800           0
      9318 MEMB     82       SAPE     C3       CTL2     0.800000E-01   12.0110           0
      9319 MEMB     82       SAPE     HX       HAL2     0.900000E-01   1.00800           0
      9320 MEMB     82       SAPE     HY       HAL2     0.900000E-01   1.00800           0
      9321 MEMB     82       SAPE     O31      OSL     -0.490000       15.9994           0
      9322 MEMB     82       SAPE     C31      CL       0.900000       12.0110           0
      9323 MEMB     82       SAPE     O32      OBL     -0.630000       15.9994           0
      9324 MEMB     82       SAPE     C32      CTL2    -0.220000       12.0110           0
      9325 MEMB     82       SAPE     H2X      HAL2     0.900000E-01   1.00800           0
      9326 MEMB     82       SAPE     H2Y      HAL2     0.900000E-01   1.00800           0
      9327 MEMB     82       SAPE     C23      CTL2    -0.180000       12.0110           0
      9328 MEMB     82       SAPE     H3R      HAL2     0.900000E-01   1.00800           0
      9329 MEMB     82       SAPE     H3S      HAL2     0.900000E-01   1.00800           0
      9330 MEMB     82       SAPE     C24      CTL2    -0.180000       12.0110           0
      9331 MEMB     82       SAPE     H4R      HAL2     0.900000E-01   1.00800           0
      9332 MEMB     82       SAPE     H4S      HAL2     0.900000E-01   1.00800           0
      9333 MEMB     82       SAPE     C25      CEL1    -0.150000       12.0110           0
      9334 MEMB     82       SAPE     H5R      HEL1     0.150000       1.00800           0
      9335 MEMB     82       SAPE     C26      CEL1    -0.150000       12.0110           0
      9336 MEMB     82       SAPE     H6R      HEL1     0.150000       1.00800           0
      9337 MEMB     82       SAPE     C27      CTL2    -0.180000       12.0110           0
      9338 MEMB     82       SAPE     H7R      HAL2     0.900000E-01   1.00800           0
      9339 MEMB     82       SAPE     H7S      HAL2     0.900000E-01   1.00800           0
      9340 MEMB     82       SAPE     C28      CEL1    -0.150000       12.0110           0
      9341 MEMB     82       SAPE     H8R      HEL1     0.150000       1.00800           0
      9342 MEMB     82       SAPE     C29      CEL1    -0.150000       12.0110           0
      9343 MEMB     82       SAPE     H9R      HEL1     0.150000       1.00800           0
      9344 MEMB     82       SAPE     C210     CTL2    -0.180000       12.0110           0
      9345 MEMB     82       SAPE     H10R     HAL2     0.900000E-01   1.00800           0
      9346 MEMB     82       SAPE     H10S     HAL2     0.900000E-01   1.00800           0
      9347 MEMB     82       SAPE     C211     CEL1    -0.150000       12.0110           0
      9348 MEMB     82       SAPE     H11R     HEL1     0.150000       1.00800           0
      9349 MEMB     82       SAPE     C212     CEL1    -0.150000       12.0110           0
      9350 MEMB     82       SAPE     H12R     HEL1     0.150000       1.00800           0
      9351 MEMB     82       SAPE     C213     CTL2    -0.180000       12.0110           0
      9352 MEMB     82       SAPE     H13R     HAL2     0.900000E-01   1.00800           0
      9353 MEMB     82       SAPE     H13S     HAL2     0.900000E-01   1.00800           0
      9354 MEMB     82       SAPE     C214     CEL1    -0.150000       12.0110           0
      9355 MEMB     82       SAPE     H14R     HEL1     0.150000       1.00800           0
      9356 MEMB     82       SAPE     C215     CEL1    -0.150000       12.0110           0
      9357 MEMB     82       SAPE     H15R     HEL1     0.150000       1.00800           0
      9358 MEMB     82       SAPE     C216     CTL2    -0.180000       12.0110           0
      9359 MEMB     82       SAPE     H16R     HAL2     0.900000E-01   1.00800           0
      9360 MEMB     82       SAPE     H16S     HAL2     0.900000E-01   1.00800           0
      9361 MEMB     82       SAPE     C217     CTL2    -0.180000       12.0110           0
      9362 MEMB     82       SAPE     H17R     HAL2     0.900000E-01   1.00800           0
      9363 MEMB     82       SAPE     H17S     HAL2     0.900000E-01   1.00800           0
      9364 MEMB     82       SAPE     C218     CTL2    -0.180000       12.0110           0
      9365 MEMB     82       SAPE     H18R     HAL2     0.900000E-01   1.00800           0
      9366 MEMB     82       SAPE     H18S     HAL2     0.900000E-01   1.00800           0
      9367 MEMB     82       SAPE     C219     CTL2    -0.180000       12.0110           0
      9368 MEMB     82       SAPE     H19R     HAL2     0.900000E-01   1.00800           0
      9369 MEMB     82       SAPE     H19S     HAL2     0.900000E-01   1.00800           0
      9370 MEMB     82       SAPE     C220     CTL3    -0.270000       12.0110           0
      9371 MEMB     82       SAPE     H20R     HAL3     0.900000E-01   1.00800           0
      9372 MEMB     82       SAPE     H20S     HAL3     0.900000E-01   1.00800           0
      9373 MEMB     82       SAPE     H20T     HAL3     0.900000E-01   1.00800           0
      9374 MEMB     82       SAPE     C33      CTL2    -0.180000       12.0110           0
      9375 MEMB     82       SAPE     H3X      HAL2     0.900000E-01   1.00800           0
      9376 MEMB     82       SAPE     H3Y      HAL2     0.900000E-01   1.00800           0
      9377 MEMB     82       SAPE     C34      CTL2    -0.180000       12.0110           0
      9378 MEMB     82       SAPE     H4X      HAL2     0.900000E-01   1.00800           0
      9379 MEMB     82       SAPE     H4Y      HAL2     0.900000E-01   1.00800           0
      9380 MEMB     82       SAPE     C35      CTL2    -0.180000       12.0110           0
      9381 MEMB     82       SAPE     H5X      HAL2     0.900000E-01   1.00800           0
      9382 MEMB     82       SAPE     H5Y      HAL2     0.900000E-01   1.00800           0
      9383 MEMB     82       SAPE     C36      CTL2    -0.180000       12.0110           0
      9384 MEMB     82       SAPE     H6X      HAL2     0.900000E-01   1.00800           0
      9385 MEMB     82       SAPE     H6Y      HAL2     0.900000E-01   1.00800           0
      9386 MEMB     82       SAPE     C37      CTL2    -0.180000       12.0110           0
      9387 MEMB     82       SAPE     H7X      HAL2     0.900000E-01   1.00800           0
      9388 MEMB     82       SAPE     H7Y      HAL2     0.900000E-01   1.00800           0
      9389 MEMB     82       SAPE     C38      CTL2    -0.180000       12.0110           0
      9390 MEMB     82       SAPE     H8X      HAL2     0.900000E-01   1.00800           0
      9391 MEMB     82       SAPE     H8Y      HAL2     0.900000E-01   1.00800           0
      9392 MEMB     82       SAPE     C39      CTL2    -0.180000       12.0110           0
      9393 MEMB     82       SAPE     H9X      HAL2     0.900000E-01   1.00800           0
      9394 MEMB     82       SAPE     H9Y      HAL2     0.900000E-01   1.00800           0
      9395 MEMB     82       SAPE     C310     CTL2    -0.180000       12.0110           0
      9396 MEMB     82       SAPE     H10X     HAL2     0.900000E-01   1.00800           0
      9397 MEMB     82       SAPE     H10Y     HAL2     0.900000E-01   1.00800           0
      9398 MEMB     82       SAPE     C311     CTL2    -0.180000       12.0110           0
      9399 MEMB     82       SAPE     H11X     HAL2     0.900000E-01   1.00800           0
      9400 MEMB     82       SAPE     H11Y     HAL2     0.900000E-01   1.00800           0
      9401 MEMB     82       SAPE     C312     CTL2    -0.180000       12.0110           0
      9402 MEMB     82       SAPE     H12X     HAL2     0.900000E-01   1.00800           0
      9403 MEMB     82       SAPE     H12Y     HAL2     0.900000E-01   1.00800           0
      9404 MEMB     82       SAPE     C313     CTL2    -0.180000       12.0110           0
      9405 MEMB     82       SAPE     H13X     HAL2     0.900000E-01   1.00800           0
      9406 MEMB     82       SAPE     H13Y     HAL2     0.900000E-01   1.00800           0
      9407 MEMB     82       SAPE     C314     CTL2    -0.180000       12.0110           0
      9408 MEMB     82       SAPE     H14X     HAL2     0.900000E-01   1.00800           0
      9409 MEMB     82       SAPE     H14Y     HAL2     0.900000E-01   1.00800           0
      9410 MEMB     82       SAPE     C315     CTL2    -0.180000       12.0110           0
      9411 MEMB     82       SAPE     H15X     HAL2     0.900000E-01   1.00800           0
      9412 MEMB     82       SAPE     H15Y     HAL2     0.900000E-01   1.00800           0
      9413 MEMB     82       SAPE     C316     CTL2    -0.180000       12.0110           0
      9414 MEMB     82       SAPE     H16X     HAL2     0.900000E-01   1.00800           0
      9415 MEMB     82       SAPE     H16Y     HAL2     0.900000E-01   1.00800           0
      9416 MEMB     82       SAPE     C317     CTL2    -0.180000       12.0110           0
      9417 MEMB     82       SAPE     H17X     HAL2     0.900000E-01   1.00800           0
      9418 MEMB     82       SAPE     H17Y     HAL2     0.900000E-01   1.00800           0
      9419 MEMB     82       SAPE     C318     CTL3    -0.270000       12.0110           0
      9420 MEMB     82       SAPE     H18X     HAL3     0.900000E-01   1.00800           0
      9421 MEMB     82       SAPE     H18Y     HAL3     0.900000E-01   1.00800           0
      9422 MEMB     82       SAPE     H18Z     HAL3     0.900000E-01   1.00800           0
      9423 MEMB     83       OSM      N        NTL     -0.600000       14.0070           0
      9424 MEMB     83       OSM      C15      CTL5    -0.350000       12.0110           0
      9425 MEMB     83       OSM      H15A     HL       0.250000       1.00800           0
      9426 MEMB     83       OSM      H15B     HL       0.250000       1.00800           0
      9427 MEMB     83       OSM      H15C     HL       0.250000       1.00800           0
      9428 MEMB     83       OSM      C14      CTL5    -0.350000       12.0110           0
      9429 MEMB     83       OSM      H14A     HL       0.250000       1.00800           0
      9430 MEMB     83       OSM      H14B     HL       0.250000       1.00800           0
      9431 MEMB     83       OSM      H14C     HL       0.250000       1.00800           0
      9432 MEMB     83       OSM      C13      CTL5    -0.350000       12.0110           0
      9433 MEMB     83       OSM      H13A     HL       0.250000       1.00800           0
      9434 MEMB     83       OSM      H13B     HL       0.250000       1.00800           0
      9435 MEMB     83       OSM      H13C     HL       0.250000       1.00800           0
      9436 MEMB     83       OSM      C12      CTL2    -0.100000       12.0110           0
      9437 MEMB     83       OSM      H12A     HL       0.250000       1.00800           0
      9438 MEMB     83       OSM      H12B     HL       0.250000       1.00800           0
      9439 MEMB     83       OSM      C11      CTL2    -0.800000E-01   12.0110           0
      9440 MEMB     83       OSM      H11A     HAL2     0.900000E-01   1.00800           0
      9441 MEMB     83       OSM      H11B     HAL2     0.900000E-01   1.00800           0
      9442 MEMB     83       OSM      P        PL        1.50000       30.9740           0
      9443 MEMB     83       OSM      O13      O2L     -0.780000       15.9994           0
      9444 MEMB     83       OSM      O14      O2L     -0.780000       15.9994           0
      9445 MEMB     83       OSM      O11      OSLP    -0.570000       15.9994           0
      9446 MEMB     83       OSM      O12      OSLP    -0.570000       15.9994           0
      9447 MEMB     83       OSM      C1S      CTL2    -0.800000E-01   12.0110           0
      9448 MEMB     83       OSM      H1S      HAL2     0.900000E-01   1.00800           0
      9449 MEMB     83       OSM      H1T      HAL2     0.900000E-01   1.00800           0
      9450 MEMB     83       OSM      NF       NHL     -0.700000       14.0070           0
      9451 MEMB     83       OSM      HNF      H        0.350000       1.00800           0
      9452 MEMB     83       OSM      C2S      CTL1     0.300000       12.0110           0
      9453 MEMB     83       OSM      H2S      HAL1     0.500000E-01   1.00800           0
      9454 MEMB     83       OSM      C3S      CTO1     0.500000       12.0110           0
      9455 MEMB     83       OSM      H3S      HAL1    -0.110000       1.00800           0
      9456 MEMB     83       OSM      O3       OHL     -0.690000       15.9994           0
      9457 MEMB     83       OSM      HO3      HOL      0.300000       1.00800           0
      9458 MEMB     83       OSM      C4S      CEL3    -0.150000       12.0110           0
      9459 MEMB     83       OSM      H4S      HEL1     0.150000       1.00800           0
      9460 MEMB     83       OSM      C5S      CEL3    -0.150000       12.0110           0
      9461 MEMB     83       OSM      H5S      HEL1     0.150000       1.00800           0
      9462 MEMB     83       OSM      C6S      CTL2    -0.180000       12.0110           0
      9463 MEMB     83       OSM      H6S      HAL2     0.900000E-01   1.00800           0
      9464 MEMB     83       OSM      H6T      HAL2     0.900000E-01   1.00800           0
      9465 MEMB     83       OSM      C7S      CTL2    -0.180000       12.0110           0
      9466 MEMB     83       OSM      H7S      HAL2     0.900000E-01   1.00800           0
      9467 MEMB     83       OSM      H7T      HAL2     0.900000E-01   1.00800           0
      9468 MEMB     83       OSM      C8S      CTL2    -0.180000       12.0110           0
      9469 MEMB     83       OSM      H8S      HAL2     0.900000E-01   1.00800           0
      9470 MEMB     83       OSM      H8T      HAL2     0.900000E-01   1.00800           0
      9471 MEMB     83       OSM      C9S      CTL2    -0.180000       12.0110           0
      9472 MEMB     83       OSM      H9S      HAL2     0.900000E-01   1.00800           0
      9473 MEMB     83       OSM      H9T      HAL2     0.900000E-01   1.00800           0
      9474 MEMB     83       OSM      C10S     CTL2    -0.180000       12.0110           0
      9475 MEMB     83       OSM      H10S     HAL2     0.900000E-01   1.00800           0
      9476 MEMB     83       OSM      H10T     HAL2     0.900000E-01   1.00800           0
      9477 MEMB     83       OSM      C11S     CTL2    -0.180000       12.0110           0
      9478 MEMB     83       OSM      H11S     HAL2     0.900000E-01   1.00800           0
      9479 MEMB     83       OSM      H11T     HAL2     0.900000E-01   1.00800           0
      9480 MEMB     83       OSM      C12S     CTL2    -0.180000       12.0110           0
      9481 MEMB     83       OSM      H12S     HAL2     0.900000E-01   1.00800           0
      9482 MEMB     83       OSM      H12T     HAL2     0.900000E-01   1.00800           0
      9483 MEMB     83       OSM      C13S     CTL2    -0.180000       12.0110           0
      9484 MEMB     83       OSM      H13S     HAL2     0.900000E-01   1.00800           0
      9485 MEMB     83       OSM      H13T     HAL2     0.900000E-01   1.00800           0
      9486 MEMB     83       OSM      C14S     CTL2    -0.180000       12.0110           0
      9487 MEMB     83       OSM      H14S     HAL2     0.900000E-01   1.00800           0
      9488 MEMB     83       OSM      H14T     HAL2     0.900000E-01   1.00800           0
      9489 MEMB     83       OSM      C15S     CTL2    -0.180000       12.0110           0
      9490 MEMB     83       OSM      H15S     HAL2     0.900000E-01   1.00800           0
      9491 MEMB     83       OSM      H15T     HAL2     0.900000E-01   1.00800           0
      9492 MEMB     83       OSM      C16S     CTL2    -0.180000       12.0110           0
      9493 MEMB     83       OSM      H16S     HAL2     0.900000E-01   1.00800           0
      9494 MEMB     83       OSM      H16T     HAL2     0.900000E-01   1.00800           0
      9495 MEMB     83       OSM      C17S     CTL2    -0.180000       12.0110           0
      9496 MEMB     83       OSM      H17S     HAL2     0.900000E-01   1.00800           0
      9497 MEMB     83       OSM      H17T     HAL2     0.900000E-01   1.00800           0
      9498 MEMB     83       OSM      C18S     CTL3    -0.270000       12.0110           0
      9499 MEMB     83       OSM      H18S     HAL3     0.900000E-01   1.00800           0
      9500 MEMB     83       OSM      H18T     HAL3     0.900000E-01   1.00800           0
      9501 MEMB     83       OSM      H18U     HAL3     0.900000E-01   1.00800           0
      9502 MEMB     83       OSM      C1F      C        0.550000       12.0110           0
      9503 MEMB     83       OSM      OF       O       -0.600000       15.9994           0
      9504 MEMB     83       OSM      C2F      CTL2    -0.700000E-01   12.0110           0
      9505 MEMB     83       OSM      H2F      HAL2     0.600000E-01   1.00800           0
      9506 MEMB     83       OSM      H2G      HAL2     0.600000E-01   1.00800           0
      9507 MEMB     83       OSM      C3F      CTL2    -0.180000       12.0110           0
      9508 MEMB     83       OSM      H3F      HAL2     0.900000E-01   1.00800           0
      9509 MEMB     83       OSM      H3G      HAL2     0.900000E-01   1.00800           0
      9510 MEMB     83       OSM      C4F      CTL2    -0.180000       12.0110           0
      9511 MEMB     83       OSM      H4F      HAL2     0.900000E-01   1.00800           0
      9512 MEMB     83       OSM      H4G      HAL2     0.900000E-01   1.00800           0
      9513 MEMB     83       OSM      C5F      CTL2    -0.180000       12.0110           0
      9514 MEMB     83       OSM      H5F      HAL2     0.900000E-01   1.00800           0
      9515 MEMB     83       OSM      H5G      HAL2     0.900000E-01   1.00800           0
      9516 MEMB     83       OSM      C6F      CTL2    -0.180000       12.0110           0
      9517 MEMB     83       OSM      H6F      HAL2     0.900000E-01   1.00800           0
      9518 MEMB     83       OSM      H6G      HAL2     0.900000E-01   1.00800           0
      9519 MEMB     83       OSM      C7F      CTL2    -0.180000       12.0110           0
      9520 MEMB     83       OSM      H7F      HAL2     0.900000E-01   1.00800           0
      9521 MEMB     83       OSM      H7G      HAL2     0.900000E-01   1.00800           0
      9522 MEMB     83       OSM      C8F      CTL2    -0.180000       12.0110           0
      9523 MEMB     83       OSM      H8F      HAL2     0.900000E-01   1.00800           0
      9524 MEMB     83       OSM      H8G      HAL2     0.900000E-01   1.00800           0
      9525 MEMB     83       OSM      C9F      CEL1    -0.150000       12.0110           0
      9526 MEMB     83       OSM      H9F      HEL1     0.150000       1.00800           0
      9527 MEMB     83       OSM      C10F     CEL1    -0.150000       12.0110           0
      9528 MEMB     83       OSM      H10F     HEL1     0.150000       1.00800           0
      9529 MEMB     83       OSM      C11F     CTL2    -0.180000       12.0110           0
      9530 MEMB     83       OSM      H11F     HAL2     0.900000E-01   1.00800           0
      9531 MEMB     83       OSM      H11G     HAL2     0.900000E-01   1.00800           0
      9532 MEMB     83       OSM      C12F     CTL2    -0.180000       12.0110           0
      9533 MEMB     83       OSM      H12F     HAL2     0.900000E-01   1.00800           0
      9534 MEMB     83       OSM      H12G     HAL2     0.900000E-01   1.00800           0
      9535 MEMB     83       OSM      C13F     CTL2    -0.180000       12.0110           0
      9536 MEMB     83       OSM      H13F     HAL2     0.900000E-01   1.00800           0
      9537 MEMB     83       OSM      H13G     HAL2     0.900000E-01   1.00800           0
      9538 MEMB     83       OSM      C14F     CTL2    -0.180000       12.0110           0
      9539 MEMB     83       OSM      H14F     HAL2     0.900000E-01   1.00800           0
      9540 MEMB     83       OSM      H14G     HAL2     0.900000E-01   1.00800           0
      9541 MEMB     83       OSM      C15F     CTL2    -0.180000       12.0110           0
      9542 MEMB     83       OSM      H15F     HAL2     0.900000E-01   1.00800           0
      9543 MEMB     83       OSM      H15G     HAL2     0.900000E-01   1.00800           0
      9544 MEMB     83       OSM      C16F     CTL2    -0.180000       12.0110           0
      9545 MEMB     83       OSM      H16F     HAL2     0.900000E-01   1.00800           0
      9546 MEMB     83       OSM      H16G     HAL2     0.900000E-01   1.00800           0
      9547 MEMB     83       OSM      C17F     CTL2    -0.180000       12.0110           0
      9548 MEMB     83       OSM      H17F     HAL2     0.900000E-01   1.00800           0
      9549 MEMB     83       OSM      H17G     HAL2     0.900000E-01   1.00800           0
      9550 MEMB     83       OSM      C18F     CTL3    -0.270000       12.0110           0
      9551 MEMB     83       OSM      H18F     HAL3     0.900000E-01   1.00800           0
      9552 MEMB     83       OSM      H18G     HAL3     0.900000E-01   1.00800           0
      9553 MEMB     83       OSM      H18H     HAL3     0.900000E-01   1.00800           0
      9554 MEMB     84       CHL1     C3       CRL1     0.140000       12.0110           0
      9555 MEMB     84       CHL1     H3       HGA1     0.900000E-01   1.00800           0
      9556 MEMB     84       CHL1     O3       OHL     -0.660000       15.9994           0
      9557 MEMB     84       CHL1     H3'      HOL      0.430000       1.00800           0
      9558 MEMB     84       CHL1     C4       CRL2    -0.180000       12.0110           0
      9559 MEMB     84       CHL1     H4A      HGA2     0.900000E-01   1.00800           0
      9560 MEMB     84       CHL1     H4B      HGA2     0.900000E-01   1.00800           0
      9561 MEMB     84       CHL1     C5       CEL1      0.00000       12.0110           0
      9562 MEMB     84       CHL1     C6       CEL1    -0.150000       12.0110           0
      9563 MEMB     84       CHL1     H6       HEL1     0.150000       1.00800           0
      9564 MEMB     84       CHL1     C7       CRL2    -0.180000       12.0110           0
      9565 MEMB     84       CHL1     H7A      HGA2     0.900000E-01   1.00800           0
      9566 MEMB     84       CHL1     H7B      HGA2     0.900000E-01   1.00800           0
      9567 MEMB     84       CHL1     C8       CRL1    -0.900000E-01   12.0110           0
      9568 MEMB     84       CHL1     H8       HGA1     0.900000E-01   1.00800           0
      9569 MEMB     84       CHL1     C14      CRL1    -0.900000E-01   12.0110           0
      9570 MEMB     84       CHL1     H14      HGA1     0.900000E-01   1.00800           0
      9571 MEMB     84       CHL1     C15      CRL2    -0.180000       12.0110           0
      9572 MEMB     84       CHL1     H15A     HGA2     0.900000E-01   1.00800           0
      9573 MEMB     84       CHL1     H15B     HGA2     0.900000E-01   1.00800           0
      9574 MEMB     84       CHL1     C16      CRL2    -0.180000       12.0110           0
      9575 MEMB     84       CHL1     H16A     HGA2     0.900000E-01   1.00800           0
      9576 MEMB     84       CHL1     H16B     HGA2     0.900000E-01   1.00800           0
      9577 MEMB     84       CHL1     C17      CRL1    -0.900000E-01   12.0110           0
      9578 MEMB     84       CHL1     H17      HGA1     0.900000E-01   1.00800           0
      9579 MEMB     84       CHL1     C13      CRL1      0.00000       12.0110           0
      9580 MEMB     84       CHL1     C18      CTL3    -0.270000       12.0110           0
      9581 MEMB     84       CHL1     H18A     HAL3     0.900000E-01   1.00800           0
      9582 MEMB     84       CHL1     H18B     HAL3     0.900000E-01   1.00800           0
      9583 MEMB     84       CHL1     H18C     HAL3     0.900000E-01   1.00800           0
      9584 MEMB     84       CHL1     C12      CRL2    -0.180000       12.0110           0
      9585 MEMB     84       CHL1     H12A     HGA2     0.900000E-01   1.00800           0
      9586 MEMB     84       CHL1     H12B     HGA2     0.900000E-01   1.00800           0
      9587 MEMB     84       CHL1     C11      CRL2    -0.180000       12.0110           0
      9588 MEMB     84       CHL1     H11A     HGA2     0.900000E-01   1.00800           0
      9589 MEMB     84       CHL1     H11B     HGA2     0.900000E-01   1.00800           0
      9590 MEMB     84       CHL1     C9       CRL1    -0.900000E-01   12.0110           0
      9591 MEMB     84       CHL1     H9       HGA1     0.900000E-01   1.00800           0
      9592 MEMB     84       CHL1     C10      CRL1      0.00000       12.0110           0
      9593 MEMB     84       CHL1     C19      CTL3    -0.270000       12.0110           0
      9594 MEMB     84       CHL1     H19A     HAL3     0.900000E-01   1.00800           0
      9595 MEMB     84       CHL1     H19B     HAL3     0.900000E-01   1.00800           0
      9596 MEMB     84       CHL1     H19C     HAL3     0.900000E-01   1.00800           0
      9597 MEMB     84       CHL1     C1       CRL2    -0.180000       12.0110           0
      9598 MEMB     84       CHL1     H1A      HGA2     0.900000E-01   1.00800           0
      9599 MEMB     84       CHL1     H1B      HGA2     0.900000E-01   1.00800           0
      9600 MEMB     84       CHL1     C2       CRL2    -0.180000       12.0110           0
      9601 MEMB     84       CHL1     H2A      HGA2     0.900000E-01   1.00800           0
      9602 MEMB     84       CHL1     H2B      HGA2     0.900000E-01   1.00800           0
      9603 MEMB     84       CHL1     C20      CTL1    -0.900000E-01   12.0110           0
      9604 MEMB     84       CHL1     H20      HAL1     0.900000E-01   1.00800           0
      9605 MEMB     84       CHL1     C21      CTL3    -0.270000       12.0110           0
      9606 MEMB     84       CHL1     H21A     HAL3     0.900000E-01   1.00800           0
      9607 MEMB     84       CHL1     H21B     HAL3     0.900000E-01   1.00800           0
      9608 MEMB     84       CHL1     H21C     HAL3     0.900000E-01   1.00800           0
      9609 MEMB     84       CHL1     C22      CTL2    -0.180000       12.0110           0
      9610 MEMB     84       CHL1     H22A     HAL2     0.900000E-01   1.00800           0
      9611 MEMB     84       CHL1     H22B     HAL2     0.900000E-01   1.00800           0
      9612 MEMB     84       CHL1     C23      CTL2    -0.180000       12.0110           0
      9613 MEMB     84       CHL1     H23A     HAL2     0.900000E-01   1.00800           0
      9614 MEMB     84       CHL1     H23B     HAL2     0.900000E-01   1.00800           0
      9615 MEMB     84       CHL1     C24      CTL2    -0.180000       12.0110           0
      9616 MEMB     84       CHL1     H24A     HAL2     0.900000E-01   1.00800           0
      9617 MEMB     84       CHL1     H24B     HAL2     0.900000E-01   1.00800           0
      9618 MEMB     84       CHL1     C25      CTL1    -0.900000E-01   12.0110           0
      9619 MEMB     84       CHL1     H25      HAL1     0.900000E-01   1.00800           0
      9620 MEMB     84       CHL1     C26      CTL3    -0.270000       12.0110           0
      9621 MEMB     84       CHL1     H26A     HAL3     0.900000E-01   1.00800           0
      9622 MEMB     84       CHL1     H26B     HAL3     0.900000E-01   1.00800           0
      9623 MEMB     84       CHL1     H26C     HAL3     0.900000E-01   1.00800           0
      9624 MEMB     84       CHL1     C27      CTL3    -0.270000       12.0110           0
      9625 MEMB     84       CHL1     H27A     HAL3     0.900000E-01   1.00800           0
      9626 MEMB     84       CHL1     H27B     HAL3     0.900000E-01   1.00800           0
      9627 MEMB     84       CHL1     H27C     HAL3     0.900000E-01   1.00800           0
      9628 MEMB     85       SAPE     N        NH3L    -0.300000       14.0070           0
      9629 MEMB     85       SAPE     HN1      HCL      0.330000       1.00800           0
      9630 MEMB     85       SAPE     HN2      HCL      0.330000       1.00800           0
      9631 MEMB     85       SAPE     HN3      HCL      0.330000       1.00800           0
      9632 MEMB     85       SAPE     C12      CTL2     0.130000       12.0110           0
      9633 MEMB     85       SAPE     H12A     HAL2     0.900000E-01   1.00800           0
      9634 MEMB     85       SAPE     H12B     HAL2     0.900000E-01   1.00800           0
      9635 MEMB     85       SAPE     C11      CTL2    -0.800000E-01   12.0110           0
      9636 MEMB     85       SAPE     H11A     HAL2     0.900000E-01   1.00800           0
      9637 MEMB     85       SAPE     H11B     HAL2     0.900000E-01   1.00800           0
      9638 MEMB     85       SAPE     P        PL        1.50000       30.9740           0
      9639 MEMB     85       SAPE     O13      O2L     -0.780000       15.9994           0
      9640 MEMB     85       SAPE     O14      O2L     -0.780000       15.9994           0
      9641 MEMB     85       SAPE     O12      OSLP    -0.570000       15.9994           0
      9642 MEMB     85       SAPE     O11      OSLP    -0.570000       15.9994           0
      9643 MEMB     85       SAPE     C1       CTL2    -0.800000E-01   12.0110           0
      9644 MEMB     85       SAPE     HA       HAL2     0.900000E-01   1.00800           0
      9645 MEMB     85       SAPE     HB       HAL2     0.900000E-01   1.00800           0
      9646 MEMB     85       SAPE     C2       CTL1     0.170000       12.0110           0
      9647 MEMB     85       SAPE     HS       HAL1     0.900000E-01   1.00800           0
      9648 MEMB     85       SAPE     O21      OSL     -0.490000       15.9994           0
      9649 MEMB     85       SAPE     C21      CL       0.900000       12.0110           0
      9650 MEMB     85       SAPE     O22      OBL     -0.630000       15.9994           0
      9651 MEMB     85       SAPE     C22      CTL2    -0.220000       12.0110           0
      9652 MEMB     85       SAPE     H2R      HAL2     0.900000E-01   1.00800           0
      9653 MEMB     85       SAPE     H2S      HAL2     0.900000E-01   1.00800           0
      9654 MEMB     85       SAPE     C3       CTL2     0.800000E-01   12.0110           0
      9655 MEMB     85       SAPE     HX       HAL2     0.900000E-01   1.00800           0
      9656 MEMB     85       SAPE     HY       HAL2     0.900000E-01   1.00800           0
      9657 MEMB     85       SAPE     O31      OSL     -0.490000       15.9994           0
      9658 MEMB     85       SAPE     C31      CL       0.900000       12.0110           0
      9659 MEMB     85       SAPE     O32      OBL     -0.630000       15.9994           0
      9660 MEMB     85       SAPE     C32      CTL2    -0.220000       12.0110           0
      9661 MEMB     85       SAPE     H2X      HAL2     0.900000E-01   1.00800           0
      9662 MEMB     85       SAPE     H2Y      HAL2     0.900000E-01   1.00800           0
      9663 MEMB     85       SAPE     C23      CTL2    -0.180000       12.0110           0
      9664 MEMB     85       SAPE     H3R      HAL2     0.900000E-01   1.00800           0
      9665 MEMB     85       SAPE     H3S      HAL2     0.900000E-01   1.00800           0
      9666 MEMB     85       SAPE     C24      CTL2    -0.180000       12.0110           0
      9667 MEMB     85       SAPE     H4R      HAL2     0.900000E-01   1.00800           0
      9668 MEMB     85       SAPE     H4S      HAL2     0.900000E-01   1.00800           0
      9669 MEMB     85       SAPE     C25      CEL1    -0.150000       12.0110           0
      9670 MEMB     85       SAPE     H5R      HEL1     0.150000       1.00800           0
      9671 MEMB     85       SAPE     C26      CEL1    -0.150000       12.0110           0
      9672 MEMB     85       SAPE     H6R      HEL1     0.150000       1.00800           0
      9673 MEMB     85       SAPE     C27      CTL2    -0.180000       12.0110           0
      9674 MEMB     85       SAPE     H7R      HAL2     0.900000E-01   1.00800           0
      9675 MEMB     85       SAPE     H7S      HAL2     0.900000E-01   1.00800           0
      9676 MEMB     85       SAPE     C28      CEL1    -0.150000       12.0110           0
      9677 MEMB     85       SAPE     H8R      HEL1     0.150000       1.00800           0
      9678 MEMB     85       SAPE     C29      CEL1    -0.150000       12.0110           0
      9679 MEMB     85       SAPE     H9R      HEL1     0.150000       1.00800           0
      9680 MEMB     85       SAPE     C210     CTL2    -0.180000       12.0110           0
      9681 MEMB     85       SAPE     H10R     HAL2     0.900000E-01   1.00800           0
      9682 MEMB     85       SAPE     H10S     HAL2     0.900000E-01   1.00800           0
      9683 MEMB     85       SAPE     C211     CEL1    -0.150000       12.0110           0
      9684 MEMB     85       SAPE     H11R     HEL1     0.150000       1.00800           0
      9685 MEMB     85       SAPE     C212     CEL1    -0.150000       12.0110           0
      9686 MEMB     85       SAPE     H12R     HEL1     0.150000       1.00800           0
      9687 MEMB     85       SAPE     C213     CTL2    -0.180000       12.0110           0
      9688 MEMB     85       SAPE     H13R     HAL2     0.900000E-01   1.00800           0
      9689 MEMB     85       SAPE     H13S     HAL2     0.900000E-01   1.00800           0
      9690 MEMB     85       SAPE     C214     CEL1    -0.150000       12.0110           0
      9691 MEMB     85       SAPE     H14R     HEL1     0.150000       1.00800           0
      9692 MEMB     85       SAPE     C215     CEL1    -0.150000       12.0110           0
      9693 MEMB     85       SAPE     H15R     HEL1     0.150000       1.00800           0
      9694 MEMB     85       SAPE     C216     CTL2    -0.180000       12.0110           0
      9695 MEMB     85       SAPE     H16R     HAL2     0.900000E-01   1.00800           0
      9696 MEMB     85       SAPE     H16S     HAL2     0.900000E-01   1.00800           0
      9697 MEMB     85       SAPE     C217     CTL2    -0.180000       12.0110           0
      9698 MEMB     85       SAPE     H17R     HAL2     0.900000E-01   1.00800           0
      9699 MEMB     85       SAPE     H17S     HAL2     0.900000E-01   1.00800           0
      9700 MEMB     85       SAPE     C218     CTL2    -0.180000       12.0110           0
      9701 MEMB     85       SAPE     H18R     HAL2     0.900000E-01   1.00800           0
      9702 MEMB     85       SAPE     H18S     HAL2     0.900000E-01   1.00800           0
      9703 MEMB     85       SAPE     C219     CTL2    -0.180000       12.0110           0
      9704 MEMB     85       SAPE     H19R     HAL2     0.900000E-01   1.00800           0
      9705 MEMB     85       SAPE     H19S     HAL2     0.900000E-01   1.00800           0
      9706 MEMB     85       SAPE     C220     CTL3    -0.270000       12.0110           0
      9707 MEMB     85       SAPE     H20R     HAL3     0.900000E-01   1.00800           0
      9708 MEMB     85       SAPE     H20S     HAL3     0.900000E-01   1.00800           0
      9709 MEMB     85       SAPE     H20T     HAL3     0.900000E-01   1.00800           0
      9710 MEMB     85       SAPE     C33      CTL2    -0.180000       12.0110           0
      9711 MEMB     85       SAPE     H3X      HAL2     0.900000E-01   1.00800           0
      9712 MEMB     85       SAPE     H3Y      HAL2     0.900000E-01   1.00800           0
      9713 MEMB     85       SAPE     C34      CTL2    -0.180000       12.0110           0
      9714 MEMB     85       SAPE     H4X      HAL2     0.900000E-01   1.00800           0
      9715 MEMB     85       SAPE     H4Y      HAL2     0.900000E-01   1.00800           0
      9716 MEMB     85       SAPE     C35      CTL2    -0.180000       12.0110           0
      9717 MEMB     85       SAPE     H5X      HAL2     0.900000E-01   1.00800           0
      9718 MEMB     85       SAPE     H5Y      HAL2     0.900000E-01   1.00800           0
      9719 MEMB     85       SAPE     C36      CTL2    -0.180000       12.0110           0
      9720 MEMB     85       SAPE     H6X      HAL2     0.900000E-01   1.00800           0
      9721 MEMB     85       SAPE     H6Y      HAL2     0.900000E-01   1.00800           0
      9722 MEMB     85       SAPE     C37      CTL2    -0.180000       12.0110           0
      9723 MEMB     85       SAPE     H7X      HAL2     0.900000E-01   1.00800           0
      9724 MEMB     85       SAPE     H7Y      HAL2     0.900000E-01   1.00800           0
      9725 MEMB     85       SAPE     C38      CTL2    -0.180000       12.0110           0
      9726 MEMB     85       SAPE     H8X      HAL2     0.900000E-01   1.00800           0
      9727 MEMB     85       SAPE     H8Y      HAL2     0.900000E-01   1.00800           0
      9728 MEMB     85       SAPE     C39      CTL2    -0.180000       12.0110           0
      9729 MEMB     85       SAPE     H9X      HAL2     0.900000E-01   1.00800           0
      9730 MEMB     85       SAPE     H9Y      HAL2     0.900000E-01   1.00800           0
      9731 MEMB     85       SAPE     C310     CTL2    -0.180000       12.0110           0
      9732 MEMB     85       SAPE     H10X     HAL2     0.900000E-01   1.00800           0
      9733 MEMB     85       SAPE     H10Y     HAL2     0.900000E-01   1.00800           0
      9734 MEMB     85       SAPE     C311     CTL2    -0.180000       12.0110           0
      9735 MEMB     85       SAPE     H11X     HAL2     0.900000E-01   1.00800           0
      9736 MEMB     85       SAPE     H11Y     HAL2     0.900000E-01   1.00800           0
      9737 MEMB     85       SAPE     C312     CTL2    -0.180000       12.0110           0
      9738 MEMB     85       SAPE     H12X     HAL2     0.900000E-01   1.00800           0
      9739 MEMB     85       SAPE     H12Y     HAL2     0.900000E-01   1.00800           0
      9740 MEMB     85       SAPE     C313     CTL2    -0.180000       12.0110           0
      9741 MEMB     85       SAPE     H13X     HAL2     0.900000E-01   1.00800           0
      9742 MEMB     85       SAPE     H13Y     HAL2     0.900000E-01   1.00800           0
      9743 MEMB     85       SAPE     C314     CTL2    -0.180000       12.0110           0
      9744 MEMB     85       SAPE     H14X     HAL2     0.900000E-01   1.00800           0
      9745 MEMB     85       SAPE     H14Y     HAL2     0.900000E-01   1.00800           0
      9746 MEMB     85       SAPE     C315     CTL2    -0.180000       12.0110           0
      9747 MEMB     85       SAPE     H15X     HAL2     0.900000E-01   1.00800           0
      9748 MEMB     85       SAPE     H15Y     HAL2     0.900000E-01   1.00800           0
      9749 MEMB     85       SAPE     C316     CTL2    -0.180000       12.0110           0
      9750 MEMB     85       SAPE     H16X     HAL2     0.900000E-01   1.00800           0
      9751 MEMB     85       SAPE     H16Y     HAL2     0.900000E-01   1.00800           0
      9752 MEMB     85       SAPE     C317     CTL2    -0.180000       12.0110           0
      9753 MEMB     85       SAPE     H17X     HAL2     0.900000E-01   1.00800           0
      9754 MEMB     85       SAPE     H17Y     HAL2     0.900000E-01   1.00800           0
      9755 MEMB     85       SAPE     C318     CTL3    -0.270000       12.0110           0
      9756 MEMB     85       SAPE     H18X     HAL3     0.900000E-01   1.00800           0
      9757 MEMB     85       SAPE     H18Y     HAL3     0.900000E-01   1.00800           0
      9758 MEMB     85       SAPE     H18Z     HAL3     0.900000E-01   1.00800           0
      9759 MEMB     86       OSM      N        NTL     -0.600000       14.0070           0
      9760 MEMB     86       OSM      C15      CTL5    -0.350000       12.0110           0
      9761 MEMB     86       OSM      H15A     HL       0.250000       1.00800           0
      9762 MEMB     86       OSM      H15B     HL       0.250000       1.00800           0
      9763 MEMB     86       OSM      H15C     HL       0.250000       1.00800           0
      9764 MEMB     86       OSM      C14      CTL5    -0.350000       12.0110           0
      9765 MEMB     86       OSM      H14A     HL       0.250000       1.00800           0
      9766 MEMB     86       OSM      H14B     HL       0.250000       1.00800           0
      9767 MEMB     86       OSM      H14C     HL       0.250000       1.00800           0
      9768 MEMB     86       OSM      C13      CTL5    -0.350000       12.0110           0
      9769 MEMB     86       OSM      H13A     HL       0.250000       1.00800           0
      9770 MEMB     86       OSM      H13B     HL       0.250000       1.00800           0
      9771 MEMB     86       OSM      H13C     HL       0.250000       1.00800           0
      9772 MEMB     86       OSM      C12      CTL2    -0.100000       12.0110           0
      9773 MEMB     86       OSM      H12A     HL       0.250000       1.00800           0
      9774 MEMB     86       OSM      H12B     HL       0.250000       1.00800           0
      9775 MEMB     86       OSM      C11      CTL2    -0.800000E-01   12.0110           0
      9776 MEMB     86       OSM      H11A     HAL2     0.900000E-01   1.00800           0
      9777 MEMB     86       OSM      H11B     HAL2     0.900000E-01   1.00800           0
      9778 MEMB     86       OSM      P        PL        1.50000       30.9740           0
      9779 MEMB     86       OSM      O13      O2L     -0.780000       15.9994           0
      9780 MEMB     86       OSM      O14      O2L     -0.780000       15.9994           0
      9781 MEMB     86       OSM      O11      OSLP    -0.570000       15.9994           0
      9782 MEMB     86       OSM      O12      OSLP    -0.570000       15.9994           0
      9783 MEMB     86       OSM      C1S      CTL2    -0.800000E-01   12.0110           0
      9784 MEMB     86       OSM      H1S      HAL2     0.900000E-01   1.00800           0
      9785 MEMB     86       OSM      H1T      HAL2     0.900000E-01   1.00800           0
      9786 MEMB     86       OSM      NF       NHL     -0.700000       14.0070           0
      9787 MEMB     86       OSM      HNF      H        0.350000       1.00800           0
      9788 MEMB     86       OSM      C2S      CTL1     0.300000       12.0110           0
      9789 MEMB     86       OSM      H2S      HAL1     0.500000E-01   1.00800           0
      9790 MEMB     86       OSM      C3S      CTO1     0.500000       12.0110           0
      9791 MEMB     86       OSM      H3S      HAL1    -0.110000       1.00800           0
      9792 MEMB     86       OSM      O3       OHL     -0.690000       15.9994           0
      9793 MEMB     86       OSM      HO3      HOL      0.300000       1.00800           0
      9794 MEMB     86       OSM      C4S      CEL3    -0.150000       12.0110           0
      9795 MEMB     86       OSM      H4S      HEL1     0.150000       1.00800           0
      9796 MEMB     86       OSM      C5S      CEL3    -0.150000       12.0110           0
      9797 MEMB     86       OSM      H5S      HEL1     0.150000       1.00800           0
      9798 MEMB     86       OSM      C6S      CTL2    -0.180000       12.0110           0
      9799 MEMB     86       OSM      H6S      HAL2     0.900000E-01   1.00800           0
      9800 MEMB     86       OSM      H6T      HAL2     0.900000E-01   1.00800           0
      9801 MEMB     86       OSM      C7S      CTL2    -0.180000       12.0110           0
      9802 MEMB     86       OSM      H7S      HAL2     0.900000E-01   1.00800           0
      9803 MEMB     86       OSM      H7T      HAL2     0.900000E-01   1.00800           0
      9804 MEMB     86       OSM      C8S      CTL2    -0.180000       12.0110           0
      9805 MEMB     86       OSM      H8S      HAL2     0.900000E-01   1.00800           0
      9806 MEMB     86       OSM      H8T      HAL2     0.900000E-01   1.00800           0
      9807 MEMB     86       OSM      C9S      CTL2    -0.180000       12.0110           0
      9808 MEMB     86       OSM      H9S      HAL2     0.900000E-01   1.00800           0
      9809 MEMB     86       OSM      H9T      HAL2     0.900000E-01   1.00800           0
      9810 MEMB     86       OSM      C10S     CTL2    -0.180000       12.0110           0
      9811 MEMB     86       OSM      H10S     HAL2     0.900000E-01   1.00800           0
      9812 MEMB     86       OSM      H10T     HAL2     0.900000E-01   1.00800           0
      9813 MEMB     86       OSM      C11S     CTL2    -0.180000       12.0110           0
      9814 MEMB     86       OSM      H11S     HAL2     0.900000E-01   1.00800           0
      9815 MEMB     86       OSM      H11T     HAL2     0.900000E-01   1.00800           0
      9816 MEMB     86       OSM      C12S     CTL2    -0.180000       12.0110           0
      9817 MEMB     86       OSM      H12S     HAL2     0.900000E-01   1.00800           0
      9818 MEMB     86       OSM      H12T     HAL2     0.900000E-01   1.00800           0
      9819 MEMB     86       OSM      C13S     CTL2    -0.180000       12.0110           0
      9820 MEMB     86       OSM      H13S     HAL2     0.900000E-01   1.00800           0
      9821 MEMB     86       OSM      H13T     HAL2     0.900000E-01   1.00800           0
      9822 MEMB     86       OSM      C14S     CTL2    -0.180000       12.0110           0
      9823 MEMB     86       OSM      H14S     HAL2     0.900000E-01   1.00800           0
      9824 MEMB     86       OSM      H14T     HAL2     0.900000E-01   1.00800           0
      9825 MEMB     86       OSM      C15S     CTL2    -0.180000       12.0110           0
      9826 MEMB     86       OSM      H15S     HAL2     0.900000E-01   1.00800           0
      9827 MEMB     86       OSM      H15T     HAL2     0.900000E-01   1.00800           0
      9828 MEMB     86       OSM      C16S     CTL2    -0.180000       12.0110           0
      9829 MEMB     86       OSM      H16S     HAL2     0.900000E-01   1.00800           0
      9830 MEMB     86       OSM      H16T     HAL2     0.900000E-01   1.00800           0
      9831 MEMB     86       OSM      C17S     CTL2    -0.180000       12.0110           0
      9832 MEMB     86       OSM      H17S     HAL2     0.900000E-01   1.00800           0
      9833 MEMB     86       OSM      H17T     HAL2     0.900000E-01   1.00800           0
      9834 MEMB     86       OSM      C18S     CTL3    -0.270000       12.0110           0
      9835 MEMB     86       OSM      H18S     HAL3     0.900000E-01   1.00800           0
      9836 MEMB     86       OSM      H18T     HAL3     0.900000E-01   1.00800           0
      9837 MEMB     86       OSM      H18U     HAL3     0.900000E-01   1.00800           0
      9838 MEMB     86       OSM      C1F      C        0.550000       12.0110           0
      9839 MEMB     86       OSM      OF       O       -0.600000       15.9994           0
      9840 MEMB     86       OSM      C2F      CTL2    -0.700000E-01   12.0110           0
      9841 MEMB     86       OSM      H2F      HAL2     0.600000E-01   1.00800           0
      9842 MEMB     86       OSM      H2G      HAL2     0.600000E-01   1.00800           0
      9843 MEMB     86       OSM      C3F      CTL2    -0.180000       12.0110           0
      9844 MEMB     86       OSM      H3F      HAL2     0.900000E-01   1.00800           0
      9845 MEMB     86       OSM      H3G      HAL2     0.900000E-01   1.00800           0
      9846 MEMB     86       OSM      C4F      CTL2    -0.180000       12.0110           0
      9847 MEMB     86       OSM      H4F      HAL2     0.900000E-01   1.00800           0
      9848 MEMB     86       OSM      H4G      HAL2     0.900000E-01   1.00800           0
      9849 MEMB     86       OSM      C5F      CTL2    -0.180000       12.0110           0
      9850 MEMB     86       OSM      H5F      HAL2     0.900000E-01   1.00800           0
      9851 MEMB     86       OSM      H5G      HAL2     0.900000E-01   1.00800           0
      9852 MEMB     86       OSM      C6F      CTL2    -0.180000       12.0110           0
      9853 MEMB     86       OSM      H6F      HAL2     0.900000E-01   1.00800           0
      9854 MEMB     86       OSM      H6G      HAL2     0.900000E-01   1.00800           0
      9855 MEMB     86       OSM      C7F      CTL2    -0.180000       12.0110           0
      9856 MEMB     86       OSM      H7F      HAL2     0.900000E-01   1.00800           0
      9857 MEMB     86       OSM      H7G      HAL2     0.900000E-01   1.00800           0
      9858 MEMB     86       OSM      C8F      CTL2    -0.180000       12.0110           0
      9859 MEMB     86       OSM      H8F      HAL2     0.900000E-01   1.00800           0
      9860 MEMB     86       OSM      H8G      HAL2     0.900000E-01   1.00800           0
      9861 MEMB     86       OSM      C9F      CEL1    -0.150000       12.0110           0
      9862 MEMB     86       OSM      H9F      HEL1     0.150000       1.00800           0
      9863 MEMB     86       OSM      C10F     CEL1    -0.150000       12.0110           0
      9864 MEMB     86       OSM      H10F     HEL1     0.150000       1.00800           0
      9865 MEMB     86       OSM      C11F     CTL2    -0.180000       12.0110           0
      9866 MEMB     86       OSM      H11F     HAL2     0.900000E-01   1.00800           0
      9867 MEMB     86       OSM      H11G     HAL2     0.900000E-01   1.00800           0
      9868 MEMB     86       OSM      C12F     CTL2    -0.180000       12.0110           0
      9869 MEMB     86       OSM      H12F     HAL2     0.900000E-01   1.00800           0
      9870 MEMB     86       OSM      H12G     HAL2     0.900000E-01   1.00800           0
      9871 MEMB     86       OSM      C13F     CTL2    -0.180000       12.0110           0
      9872 MEMB     86       OSM      H13F     HAL2     0.900000E-01   1.00800           0
      9873 MEMB     86       OSM      H13G     HAL2     0.900000E-01   1.00800           0
      9874 MEMB     86       OSM      C14F     CTL2    -0.180000       12.0110           0
      9875 MEMB     86       OSM      H14F     HAL2     0.900000E-01   1.00800           0
      9876 MEMB     86       OSM      H14G     HAL2     0.900000E-01   1.00800           0
      9877 MEMB     86       OSM      C15F     CTL2    -0.180000       12.0110           0
      9878 MEMB     86       OSM      H15F     HAL2     0.900000E-01   1.00800           0
      9879 MEMB     86       OSM      H15G     HAL2     0.900000E-01   1.00800           0
      9880 MEMB     86       OSM      C16F     CTL2    -0.180000       12.0110           0
      9881 MEMB     86       OSM      H16F     HAL2     0.900000E-01   1.00800           0
      9882 MEMB     86       OSM      H16G     HAL2     0.900000E-01   1.00800           0
      9883 MEMB     86       OSM      C17F     CTL2    -0.180000       12.0110           0
      9884 MEMB     86       OSM      H17F     HAL2     0.900000E-01   1.00800           0
      9885 MEMB     86       OSM      H17G     HAL2     0.900000E-01   1.00800           0
      9886 MEMB     86       OSM      C18F     CTL3    -0.270000       12.0110           0
      9887 MEMB     86       OSM      H18F     HAL3     0.900000E-01   1.00800           0
      9888 MEMB     86       OSM      H18G     HAL3     0.900000E-01   1.00800           0
      9889 MEMB     86       OSM      H18H     HAL3     0.900000E-01   1.00800           0
      9890 MEMB     87       SLPC     N        NTL     -0.600000       14.0070           0
      9891 MEMB     87       SLPC     C13      CTL5    -0.350000       12.0110           0
      9892 MEMB     87       SLPC     H13A     HL       0.250000       1.00800           0
      9893 MEMB     87       SLPC     H13B     HL       0.250000       1.00800           0
      9894 MEMB     87       SLPC     H13C     HL       0.250000       1.00800           0
      9895 MEMB     87       SLPC     C14      CTL5    -0.350000       12.0110           0
      9896 MEMB     87       SLPC     H14A     HL       0.250000       1.00800           0
      9897 MEMB     87       SLPC     H14B     HL       0.250000       1.00800           0
      9898 MEMB     87       SLPC     H14C     HL       0.250000       1.00800           0
      9899 MEMB     87       SLPC     C15      CTL5    -0.350000       12.0110           0
      9900 MEMB     87       SLPC     H15A     HL       0.250000       1.00800           0
      9901 MEMB     87       SLPC     H15B     HL       0.250000       1.00800           0
      9902 MEMB     87       SLPC     H15C     HL       0.250000       1.00800           0
      9903 MEMB     87       SLPC     C12      CTL2    -0.100000       12.0110           0
      9904 MEMB     87       SLPC     H12A     HL       0.250000       1.00800           0
      9905 MEMB     87       SLPC     H12B     HL       0.250000       1.00800           0
      9906 MEMB     87       SLPC     C11      CTL2    -0.800000E-01   12.0110           0
      9907 MEMB     87       SLPC     H11A     HAL2     0.900000E-01   1.00800           0
      9908 MEMB     87       SLPC     H11B     HAL2     0.900000E-01   1.00800           0
      9909 MEMB     87       SLPC     P        PL        1.50000       30.9740           0
      9910 MEMB     87       SLPC     O13      O2L     -0.780000       15.9994           0
      9911 MEMB     87       SLPC     O14      O2L     -0.780000       15.9994           0
      9912 MEMB     87       SLPC     O12      OSLP    -0.570000       15.9994           0
      9913 MEMB     87       SLPC     O11      OSLP    -0.570000       15.9994           0
      9914 MEMB     87       SLPC     C1       CTL2    -0.800000E-01   12.0110           0
      9915 MEMB     87       SLPC     HA       HAL2     0.900000E-01   1.00800           0
      9916 MEMB     87       SLPC     HB       HAL2     0.900000E-01   1.00800           0
      9917 MEMB     87       SLPC     C2       CTL1     0.170000       12.0110           0
      9918 MEMB     87       SLPC     HS       HAL1     0.900000E-01   1.00800           0
      9919 MEMB     87       SLPC     O21      OSL     -0.490000       15.9994           0
      9920 MEMB     87       SLPC     C21      CL       0.900000       12.0110           0
      9921 MEMB     87       SLPC     O22      OBL     -0.630000       15.9994           0
      9922 MEMB     87       SLPC     C22      CTL2    -0.220000       12.0110           0
      9923 MEMB     87       SLPC     H2R      HAL2     0.900000E-01   1.00800           0
      9924 MEMB     87       SLPC     H2S      HAL2     0.900000E-01   1.00800           0
      9925 MEMB     87       SLPC     C3       CTL2     0.800000E-01   12.0110           0
      9926 MEMB     87       SLPC     HX       HAL2     0.900000E-01   1.00800           0
      9927 MEMB     87       SLPC     HY       HAL2     0.900000E-01   1.00800           0
      9928 MEMB     87       SLPC     O31      OSL     -0.490000       15.9994           0
      9929 MEMB     87       SLPC     C31      CL       0.900000       12.0110           0
      9930 MEMB     87       SLPC     O32      OBL     -0.630000       15.9994           0
      9931 MEMB     87       SLPC     C32      CTL2    -0.220000       12.0110           0
      9932 MEMB     87       SLPC     H2X      HAL2     0.900000E-01   1.00800           0
      9933 MEMB     87       SLPC     H2Y      HAL2     0.900000E-01   1.00800           0
      9934 MEMB     87       SLPC     C23      CTL2    -0.180000       12.0110           0
      9935 MEMB     87       SLPC     H3R      HAL2     0.900000E-01   1.00800           0
      9936 MEMB     87       SLPC     H3S      HAL2     0.900000E-01   1.00800           0
      9937 MEMB     87       SLPC     C24      CTL2    -0.180000       12.0110           0
      9938 MEMB     87       SLPC     H4R      HAL2     0.900000E-01   1.00800           0
      9939 MEMB     87       SLPC     H4S      HAL2     0.900000E-01   1.00800           0
      9940 MEMB     87       SLPC     C25      CTL2    -0.180000       12.0110           0
      9941 MEMB     87       SLPC     H5R      HAL2     0.900000E-01   1.00800           0
      9942 MEMB     87       SLPC     H5S      HAL2     0.900000E-01   1.00800           0
      9943 MEMB     87       SLPC     C26      CTL2    -0.180000       12.0110           0
      9944 MEMB     87       SLPC     H6R      HAL2     0.900000E-01   1.00800           0
      9945 MEMB     87       SLPC     H6S      HAL2     0.900000E-01   1.00800           0
      9946 MEMB     87       SLPC     C27      CTL2    -0.180000       12.0110           0
      9947 MEMB     87       SLPC     H7R      HAL2     0.900000E-01   1.00800           0
      9948 MEMB     87       SLPC     H7S      HAL2     0.900000E-01   1.00800           0
      9949 MEMB     87       SLPC     C28      CTL2    -0.180000       12.0110           0
      9950 MEMB     87       SLPC     H8R      HAL2     0.900000E-01   1.00800           0
      9951 MEMB     87       SLPC     H8S      HAL2     0.900000E-01   1.00800           0
      9952 MEMB     87       SLPC     C29      CEL1    -0.150000       12.0110           0
      9953 MEMB     87       SLPC     H9R      HEL1     0.150000       1.00800           0
      9954 MEMB     87       SLPC     C210     CEL1    -0.150000       12.0110           0
      9955 MEMB     87       SLPC     H10R     HEL1     0.150000       1.00800           0
      9956 MEMB     87       SLPC     C211     CTL2    -0.180000       12.0110           0
      9957 MEMB     87       SLPC     H11R     HAL2     0.900000E-01   1.00800           0
      9958 MEMB     87       SLPC     H11S     HAL2     0.900000E-01   1.00800           0
      9959 MEMB     87       SLPC     C212     CEL1    -0.150000       12.0110           0
      9960 MEMB     87       SLPC     H12R     HEL1     0.150000       1.00800           0
      9961 MEMB     87       SLPC     C213     CEL1    -0.150000       12.0110           0
      9962 MEMB     87       SLPC     H13R     HEL1     0.150000       1.00800           0
      9963 MEMB     87       SLPC     C214     CTL2    -0.180000       12.0110           0
      9964 MEMB     87       SLPC     H14R     HAL2     0.900000E-01   1.00800           0
      9965 MEMB     87       SLPC     H14S     HAL2     0.900000E-01   1.00800           0
      9966 MEMB     87       SLPC     C215     CTL2    -0.180000       12.0110           0
      9967 MEMB     87       SLPC     H15R     HAL2     0.900000E-01   1.00800           0
      9968 MEMB     87       SLPC     H15S     HAL2     0.900000E-01   1.00800           0
      9969 MEMB     87       SLPC     C216     CTL2    -0.180000       12.0110           0
      9970 MEMB     87       SLPC     H16R     HAL2     0.900000E-01   1.00800           0
      9971 MEMB     87       SLPC     H16S     HAL2     0.900000E-01   1.00800           0
      9972 MEMB     87       SLPC     C217     CTL2    -0.180000       12.0110           0
      9973 MEMB     87       SLPC     H17R     HAL2     0.900000E-01   1.00800           0
      9974 MEMB     87       SLPC     H17S     HAL2     0.900000E-01   1.00800           0
      9975 MEMB     87       SLPC     C218     CTL3    -0.270000       12.0110           0
      9976 MEMB     87       SLPC     H18R     HAL3     0.900000E-01   1.00800           0
      9977 MEMB     87       SLPC     H18S     HAL3     0.900000E-01   1.00800           0
      9978 MEMB     87       SLPC     H18T     HAL3     0.900000E-01   1.00800           0
      9979 MEMB     87       SLPC     C33      CTL2    -0.180000       12.0110           0
      9980 MEMB     87       SLPC     H3X      HAL2     0.900000E-01   1.00800           0
      9981 MEMB     87       SLPC     H3Y      HAL2     0.900000E-01   1.00800           0
      9982 MEMB     87       SLPC     C34      CTL2    -0.180000       12.0110           0
      9983 MEMB     87       SLPC     H4X      HAL2     0.900000E-01   1.00800           0
      9984 MEMB     87       SLPC     H4Y      HAL2     0.900000E-01   1.00800           0
      9985 MEMB     87       SLPC     C35      CTL2    -0.180000       12.0110           0
      9986 MEMB     87       SLPC     H5X      HAL2     0.900000E-01   1.00800           0
      9987 MEMB     87       SLPC     H5Y      HAL2     0.900000E-01   1.00800           0
      9988 MEMB     87       SLPC     C36      CTL2    -0.180000       12.0110           0
      9989 MEMB     87       SLPC     H6X      HAL2     0.900000E-01   1.00800           0
      9990 MEMB     87       SLPC     H6Y      HAL2     0.900000E-01   1.00800           0
      9991 MEMB     87       SLPC     C37      CTL2    -0.180000       12.0110           0
      9992 MEMB     87       SLPC     H7X      HAL2     0.900000E-01   1.00800           0
      9993 MEMB     87       SLPC     H7Y      HAL2     0.900000E-01   1.00800           0
      9994 MEMB     87       SLPC     C38      CTL2    -0.180000       12.0110           0
      9995 MEMB     87       SLPC     H8X      HAL2     0.900000E-01   1.00800           0
      9996 MEMB     87       SLPC     H8Y      HAL2     0.900000E-01   1.00800           0
      9997 MEMB     87       SLPC     C39      CTL2    -0.180000       12.0110           0
      9998 MEMB     87       SLPC     H9X      HAL2     0.900000E-01   1.00800           0
      9999 MEMB     87       SLPC     H9Y      HAL2     0.900000E-01   1.00800           0
     10000 MEMB     87       SLPC     C310     CTL2    -0.180000       12.0110           0
     10001 MEMB     87       SLPC     H10X     HAL2     0.900000E-01   1.00800           0
     10002 MEMB     87       SLPC     H10Y     HAL2     0.900000E-01   1.00800           0
     10003 MEMB     87       SLPC     C311     CTL2    -0.180000       12.0110           0
     10004 MEMB     87       SLPC     H11X     HAL2     0.900000E-01   1.00800           0
     10005 MEMB     87       SLPC     H11Y     HAL2     0.900000E-01   1.00800           0
     10006 MEMB     87       SLPC     C312     CTL2    -0.180000       12.0110           0
     10007 MEMB     87       SLPC     H12X     HAL2     0.900000E-01   1.00800           0
     10008 MEMB     87       SLPC     H12Y     HAL2     0.900000E-01   1.00800           0
     10009 MEMB     87       SLPC     C313     CTL2    -0.180000       12.0110           0
     10010 MEMB     87       SLPC     H13X     HAL2     0.900000E-01   1.00800           0
     10011 MEMB     87       SLPC     H13Y     HAL2     0.900000E-01   1.00800           0
     10012 MEMB     87       SLPC     C314     CTL2    -0.180000       12.0110           0
     10013 MEMB     87       SLPC     H14X     HAL2     0.900000E-01   1.00800           0
     10014 MEMB     87       SLPC     H14Y     HAL2     0.900000E-01   1.00800           0
     10015 MEMB     87       SLPC     C315     CTL2    -0.180000       12.0110           0
     10016 MEMB     87       SLPC     H15X     HAL2     0.900000E-01   1.00800           0
     10017 MEMB     87       SLPC     H15Y     HAL2     0.900000E-01   1.00800           0
     10018 MEMB     87       SLPC     C316     CTL2    -0.180000       12.0110           0
     10019 MEMB     87       SLPC     H16X     HAL2     0.900000E-01   1.00800           0
     10020 MEMB     87       SLPC     H16Y     HAL2     0.900000E-01   1.00800           0
     10021 MEMB     87       SLPC     C317     CTL2    -0.180000       12.0110           0
     10022 MEMB     87       SLPC     H17X     HAL2     0.900000E-01   1.00800           0
     10023 MEMB     87       SLPC     H17Y     HAL2     0.900000E-01   1.00800           0
     10024 MEMB     87       SLPC     C318     CTL3    -0.270000       12.0110           0
     10025 MEMB     87       SLPC     H18X     HAL3     0.900000E-01   1.00800           0
     10026 MEMB     87       SLPC     H18Y     HAL3     0.900000E-01   1.00800           0
     10027 MEMB     87       SLPC     H18Z     HAL3     0.900000E-01   1.00800           0
     10028 MEMB     88       OSM      N        NTL     -0.600000       14.0070           0
     10029 MEMB     88       OSM      C15      CTL5    -0.350000       12.0110           0
     10030 MEMB     88       OSM      H15A     HL       0.250000       1.00800           0
     10031 MEMB     88       OSM      H15B     HL       0.250000       1.00800           0
     10032 MEMB     88       OSM      H15C     HL       0.250000       1.00800           0
     10033 MEMB     88       OSM      C14      CTL5    -0.350000       12.0110           0
     10034 MEMB     88       OSM      H14A     HL       0.250000       1.00800           0
     10035 MEMB     88       OSM      H14B     HL       0.250000       1.00800           0
     10036 MEMB     88       OSM      H14C     HL       0.250000       1.00800           0
     10037 MEMB     88       OSM      C13      CTL5    -0.350000       12.0110           0
     10038 MEMB     88       OSM      H13A     HL       0.250000       1.00800           0
     10039 MEMB     88       OSM      H13B     HL       0.250000       1.00800           0
     10040 MEMB     88       OSM      H13C     HL       0.250000       1.00800           0
     10041 MEMB     88       OSM      C12      CTL2    -0.100000       12.0110           0
     10042 MEMB     88       OSM      H12A     HL       0.250000       1.00800           0
     10043 MEMB     88       OSM      H12B     HL       0.250000       1.00800           0
     10044 MEMB     88       OSM      C11      CTL2    -0.800000E-01   12.0110           0
     10045 MEMB     88       OSM      H11A     HAL2     0.900000E-01   1.00800           0
     10046 MEMB     88       OSM      H11B     HAL2     0.900000E-01   1.00800           0
     10047 MEMB     88       OSM      P        PL        1.50000       30.9740           0
     10048 MEMB     88       OSM      O13      O2L     -0.780000       15.9994           0
     10049 MEMB     88       OSM      O14      O2L     -0.780000       15.9994           0
     10050 MEMB     88       OSM      O11      OSLP    -0.570000       15.9994           0
     10051 MEMB     88       OSM      O12      OSLP    -0.570000       15.9994           0
     10052 MEMB     88       OSM      C1S      CTL2    -0.800000E-01   12.0110           0
     10053 MEMB     88       OSM      H1S      HAL2     0.900000E-01   1.00800           0
     10054 MEMB     88       OSM      H1T      HAL2     0.900000E-01   1.00800           0
     10055 MEMB     88       OSM      NF       NHL     -0.700000       14.0070           0
     10056 MEMB     88       OSM      HNF      H        0.350000       1.00800           0
     10057 MEMB     88       OSM      C2S      CTL1     0.300000       12.0110           0
     10058 MEMB     88       OSM      H2S      HAL1     0.500000E-01   1.00800           0
     10059 MEMB     88       OSM      C3S      CTO1     0.500000       12.0110           0
     10060 MEMB     88       OSM      H3S      HAL1    -0.110000       1.00800           0
     10061 MEMB     88       OSM      O3       OHL     -0.690000       15.9994           0
     10062 MEMB     88       OSM      HO3      HOL      0.300000       1.00800           0
     10063 MEMB     88       OSM      C4S      CEL3    -0.150000       12.0110           0
     10064 MEMB     88       OSM      H4S      HEL1     0.150000       1.00800           0
     10065 MEMB     88       OSM      C5S      CEL3    -0.150000       12.0110           0
     10066 MEMB     88       OSM      H5S      HEL1     0.150000       1.00800           0
     10067 MEMB     88       OSM      C6S      CTL2    -0.180000       12.0110           0
     10068 MEMB     88       OSM      H6S      HAL2     0.900000E-01   1.00800           0
     10069 MEMB     88       OSM      H6T      HAL2     0.900000E-01   1.00800           0
     10070 MEMB     88       OSM      C7S      CTL2    -0.180000       12.0110           0
     10071 MEMB     88       OSM      H7S      HAL2     0.900000E-01   1.00800           0
     10072 MEMB     88       OSM      H7T      HAL2     0.900000E-01   1.00800           0
     10073 MEMB     88       OSM      C8S      CTL2    -0.180000       12.0110           0
     10074 MEMB     88       OSM      H8S      HAL2     0.900000E-01   1.00800           0
     10075 MEMB     88       OSM      H8T      HAL2     0.900000E-01   1.00800           0
     10076 MEMB     88       OSM      C9S      CTL2    -0.180000       12.0110           0
     10077 MEMB     88       OSM      H9S      HAL2     0.900000E-01   1.00800           0
     10078 MEMB     88       OSM      H9T      HAL2     0.900000E-01   1.00800           0
     10079 MEMB     88       OSM      C10S     CTL2    -0.180000       12.0110           0
     10080 MEMB     88       OSM      H10S     HAL2     0.900000E-01   1.00800           0
     10081 MEMB     88       OSM      H10T     HAL2     0.900000E-01   1.00800           0
     10082 MEMB     88       OSM      C11S     CTL2    -0.180000       12.0110           0
     10083 MEMB     88       OSM      H11S     HAL2     0.900000E-01   1.00800           0
     10084 MEMB     88       OSM      H11T     HAL2     0.900000E-01   1.00800           0
     10085 MEMB     88       OSM      C12S     CTL2    -0.180000       12.0110           0
     10086 MEMB     88       OSM      H12S     HAL2     0.900000E-01   1.00800           0
     10087 MEMB     88       OSM      H12T     HAL2     0.900000E-01   1.00800           0
     10088 MEMB     88       OSM      C13S     CTL2    -0.180000       12.0110           0
     10089 MEMB     88       OSM      H13S     HAL2     0.900000E-01   1.00800           0
     10090 MEMB     88       OSM      H13T     HAL2     0.900000E-01   1.00800           0
     10091 MEMB     88       OSM      C14S     CTL2    -0.180000       12.0110           0
     10092 MEMB     88       OSM      H14S     HAL2     0.900000E-01   1.00800           0
     10093 MEMB     88       OSM      H14T     HAL2     0.900000E-01   1.00800           0
     10094 MEMB     88       OSM      C15S     CTL2    -0.180000       12.0110           0
     10095 MEMB     88       OSM      H15S     HAL2     0.900000E-01   1.00800           0
     10096 MEMB     88       OSM      H15T     HAL2     0.900000E-01   1.00800           0
     10097 MEMB     88       OSM      C16S     CTL2    -0.180000       12.0110           0
     10098 MEMB     88       OSM      H16S     HAL2     0.900000E-01   1.00800           0
     10099 MEMB     88       OSM      H16T     HAL2     0.900000E-01   1.00800           0
     10100 MEMB     88       OSM      C17S     CTL2    -0.180000       12.0110           0
     10101 MEMB     88       OSM      H17S     HAL2     0.900000E-01   1.00800           0
     10102 MEMB     88       OSM      H17T     HAL2     0.900000E-01   1.00800           0
     10103 MEMB     88       OSM      C18S     CTL3    -0.270000       12.0110           0
     10104 MEMB     88       OSM      H18S     HAL3     0.900000E-01   1.00800           0
     10105 MEMB     88       OSM      H18T     HAL3     0.900000E-01   1.00800           0
     10106 MEMB     88       OSM      H18U     HAL3     0.900000E-01   1.00800           0
     10107 MEMB     88       OSM      C1F      C        0.550000       12.0110           0
     10108 MEMB     88       OSM      OF       O       -0.600000       15.9994           0
     10109 MEMB     88       OSM      C2F      CTL2    -0.700000E-01   12.0110           0
     10110 MEMB     88       OSM      H2F      HAL2     0.600000E-01   1.00800           0
     10111 MEMB     88       OSM      H2G      HAL2     0.600000E-01   1.00800           0
     10112 MEMB     88       OSM      C3F      CTL2    -0.180000       12.0110           0
     10113 MEMB     88       OSM      H3F      HAL2     0.900000E-01   1.00800           0
     10114 MEMB     88       OSM      H3G      HAL2     0.900000E-01   1.00800           0
     10115 MEMB     88       OSM      C4F      CTL2    -0.180000       12.0110           0
     10116 MEMB     88       OSM      H4F      HAL2     0.900000E-01   1.00800           0
     10117 MEMB     88       OSM      H4G      HAL2     0.900000E-01   1.00800           0
     10118 MEMB     88       OSM      C5F      CTL2    -0.180000       12.0110           0
     10119 MEMB     88       OSM      H5F      HAL2     0.900000E-01   1.00800           0
     10120 MEMB     88       OSM      H5G      HAL2     0.900000E-01   1.00800           0
     10121 MEMB     88       OSM      C6F      CTL2    -0.180000       12.0110           0
     10122 MEMB     88       OSM      H6F      HAL2     0.900000E-01   1.00800           0
     10123 MEMB     88       OSM      H6G      HAL2     0.900000E-01   1.00800           0
     10124 MEMB     88       OSM      C7F      CTL2    -0.180000       12.0110           0
     10125 MEMB     88       OSM      H7F      HAL2     0.900000E-01   1.00800           0
     10126 MEMB     88       OSM      H7G      HAL2     0.900000E-01   1.00800           0
     10127 MEMB     88       OSM      C8F      CTL2    -0.180000       12.0110           0
     10128 MEMB     88       OSM      H8F      HAL2     0.900000E-01   1.00800           0
     10129 MEMB     88       OSM      H8G      HAL2     0.900000E-01   1.00800           0
     10130 MEMB     88       OSM      C9F      CEL1    -0.150000       12.0110           0
     10131 MEMB     88       OSM      H9F      HEL1     0.150000       1.00800           0
     10132 MEMB     88       OSM      C10F     CEL1    -0.150000       12.0110           0
     10133 MEMB     88       OSM      H10F     HEL1     0.150000       1.00800           0
     10134 MEMB     88       OSM      C11F     CTL2    -0.180000       12.0110           0
     10135 MEMB     88       OSM      H11F     HAL2     0.900000E-01   1.00800           0
     10136 MEMB     88       OSM      H11G     HAL2     0.900000E-01   1.00800           0
     10137 MEMB     88       OSM      C12F     CTL2    -0.180000       12.0110           0
     10138 MEMB     88       OSM      H12F     HAL2     0.900000E-01   1.00800           0
     10139 MEMB     88       OSM      H12G     HAL2     0.900000E-01   1.00800           0
     10140 MEMB     88       OSM      C13F     CTL2    -0.180000       12.0110           0
     10141 MEMB     88       OSM      H13F     HAL2     0.900000E-01   1.00800           0
     10142 MEMB     88       OSM      H13G     HAL2     0.900000E-01   1.00800           0
     10143 MEMB     88       OSM      C14F     CTL2    -0.180000       12.0110           0
     10144 MEMB     88       OSM      H14F     HAL2     0.900000E-01   1.00800           0
     10145 MEMB     88       OSM      H14G     HAL2     0.900000E-01   1.00800           0
     10146 MEMB     88       OSM      C15F     CTL2    -0.180000       12.0110           0
     10147 MEMB     88       OSM      H15F     HAL2     0.900000E-01   1.00800           0
     10148 MEMB     88       OSM      H15G     HAL2     0.900000E-01   1.00800           0
     10149 MEMB     88       OSM      C16F     CTL2    -0.180000       12.0110           0
     10150 MEMB     88       OSM      H16F     HAL2     0.900000E-01   1.00800           0
     10151 MEMB     88       OSM      H16G     HAL2     0.900000E-01   1.00800           0
     10152 MEMB     88       OSM      C17F     CTL2    -0.180000       12.0110           0
     10153 MEMB     88       OSM      H17F     HAL2     0.900000E-01   1.00800           0
     10154 MEMB     88       OSM      H17G     HAL2     0.900000E-01   1.00800           0
     10155 MEMB     88       OSM      C18F     CTL3    -0.270000       12.0110           0
     10156 MEMB     88       OSM      H18F     HAL3     0.900000E-01   1.00800           0
     10157 MEMB     88       OSM      H18G     HAL3     0.900000E-01   1.00800           0
     10158 MEMB     88       OSM      H18H     HAL3     0.900000E-01   1.00800           0
     10159 MEMB     89       CHL1     C3       CRL1     0.140000       12.0110           0
     10160 MEMB     89       CHL1     H3       HGA1     0.900000E-01   1.00800           0
     10161 MEMB     89       CHL1     O3       OHL     -0.660000       15.9994           0
     10162 MEMB     89       CHL1     H3'      HOL      0.430000       1.00800           0
     10163 MEMB     89       CHL1     C4       CRL2    -0.180000       12.0110           0
     10164 MEMB     89       CHL1     H4A      HGA2     0.900000E-01   1.00800           0
     10165 MEMB     89       CHL1     H4B      HGA2     0.900000E-01   1.00800           0
     10166 MEMB     89       CHL1     C5       CEL1      0.00000       12.0110           0
     10167 MEMB     89       CHL1     C6       CEL1    -0.150000       12.0110           0
     10168 MEMB     89       CHL1     H6       HEL1     0.150000       1.00800           0
     10169 MEMB     89       CHL1     C7       CRL2    -0.180000       12.0110           0
     10170 MEMB     89       CHL1     H7A      HGA2     0.900000E-01   1.00800           0
     10171 MEMB     89       CHL1     H7B      HGA2     0.900000E-01   1.00800           0
     10172 MEMB     89       CHL1     C8       CRL1    -0.900000E-01   12.0110           0
     10173 MEMB     89       CHL1     H8       HGA1     0.900000E-01   1.00800           0
     10174 MEMB     89       CHL1     C14      CRL1    -0.900000E-01   12.0110           0
     10175 MEMB     89       CHL1     H14      HGA1     0.900000E-01   1.00800           0
     10176 MEMB     89       CHL1     C15      CRL2    -0.180000       12.0110           0
     10177 MEMB     89       CHL1     H15A     HGA2     0.900000E-01   1.00800           0
     10178 MEMB     89       CHL1     H15B     HGA2     0.900000E-01   1.00800           0
     10179 MEMB     89       CHL1     C16      CRL2    -0.180000       12.0110           0
     10180 MEMB     89       CHL1     H16A     HGA2     0.900000E-01   1.00800           0
     10181 MEMB     89       CHL1     H16B     HGA2     0.900000E-01   1.00800           0
     10182 MEMB     89       CHL1     C17      CRL1    -0.900000E-01   12.0110           0
     10183 MEMB     89       CHL1     H17      HGA1     0.900000E-01   1.00800           0
     10184 MEMB     89       CHL1     C13      CRL1      0.00000       12.0110           0
     10185 MEMB     89       CHL1     C18      CTL3    -0.270000       12.0110           0
     10186 MEMB     89       CHL1     H18A     HAL3     0.900000E-01   1.00800           0
     10187 MEMB     89       CHL1     H18B     HAL3     0.900000E-01   1.00800           0
     10188 MEMB     89       CHL1     H18C     HAL3     0.900000E-01   1.00800           0
     10189 MEMB     89       CHL1     C12      CRL2    -0.180000       12.0110           0
     10190 MEMB     89       CHL1     H12A     HGA2     0.900000E-01   1.00800           0
     10191 MEMB     89       CHL1     H12B     HGA2     0.900000E-01   1.00800           0
     10192 MEMB     89       CHL1     C11      CRL2    -0.180000       12.0110           0
     10193 MEMB     89       CHL1     H11A     HGA2     0.900000E-01   1.00800           0
     10194 MEMB     89       CHL1     H11B     HGA2     0.900000E-01   1.00800           0
     10195 MEMB     89       CHL1     C9       CRL1    -0.900000E-01   12.0110           0
     10196 MEMB     89       CHL1     H9       HGA1     0.900000E-01   1.00800           0
     10197 MEMB     89       CHL1     C10      CRL1      0.00000       12.0110           0
     10198 MEMB     89       CHL1     C19      CTL3    -0.270000       12.0110           0
     10199 MEMB     89       CHL1     H19A     HAL3     0.900000E-01   1.00800           0
     10200 MEMB     89       CHL1     H19B     HAL3     0.900000E-01   1.00800           0
     10201 MEMB     89       CHL1     H19C     HAL3     0.900000E-01   1.00800           0
     10202 MEMB     89       CHL1     C1       CRL2    -0.180000       12.0110           0
     10203 MEMB     89       CHL1     H1A      HGA2     0.900000E-01   1.00800           0
     10204 MEMB     89       CHL1     H1B      HGA2     0.900000E-01   1.00800           0
     10205 MEMB     89       CHL1     C2       CRL2    -0.180000       12.0110           0
     10206 MEMB     89       CHL1     H2A      HGA2     0.900000E-01   1.00800           0
     10207 MEMB     89       CHL1     H2B      HGA2     0.900000E-01   1.00800           0
     10208 MEMB     89       CHL1     C20      CTL1    -0.900000E-01   12.0110           0
     10209 MEMB     89       CHL1     H20      HAL1     0.900000E-01   1.00800           0
     10210 MEMB     89       CHL1     C21      CTL3    -0.270000       12.0110           0
     10211 MEMB     89       CHL1     H21A     HAL3     0.900000E-01   1.00800           0
     10212 MEMB     89       CHL1     H21B     HAL3     0.900000E-01   1.00800           0
     10213 MEMB     89       CHL1     H21C     HAL3     0.900000E-01   1.00800           0
     10214 MEMB     89       CHL1     C22      CTL2    -0.180000       12.0110           0
     10215 MEMB     89       CHL1     H22A     HAL2     0.900000E-01   1.00800           0
     10216 MEMB     89       CHL1     H22B     HAL2     0.900000E-01   1.00800           0
     10217 MEMB     89       CHL1     C23      CTL2    -0.180000       12.0110           0
     10218 MEMB     89       CHL1     H23A     HAL2     0.900000E-01   1.00800           0
     10219 MEMB     89       CHL1     H23B     HAL2     0.900000E-01   1.00800           0
     10220 MEMB     89       CHL1     C24      CTL2    -0.180000       12.0110           0
     10221 MEMB     89       CHL1     H24A     HAL2     0.900000E-01   1.00800           0
     10222 MEMB     89       CHL1     H24B     HAL2     0.900000E-01   1.00800           0
     10223 MEMB     89       CHL1     C25      CTL1    -0.900000E-01   12.0110           0
     10224 MEMB     89       CHL1     H25      HAL1     0.900000E-01   1.00800           0
     10225 MEMB     89       CHL1     C26      CTL3    -0.270000       12.0110           0
     10226 MEMB     89       CHL1     H26A     HAL3     0.900000E-01   1.00800           0
     10227 MEMB     89       CHL1     H26B     HAL3     0.900000E-01   1.00800           0
     10228 MEMB     89       CHL1     H26C     HAL3     0.900000E-01   1.00800           0
     10229 MEMB     89       CHL1     C27      CTL3    -0.270000       12.0110           0
     10230 MEMB     89       CHL1     H27A     HAL3     0.900000E-01   1.00800           0
     10231 MEMB     89       CHL1     H27B     HAL3     0.900000E-01   1.00800           0
     10232 MEMB     89       CHL1     H27C     HAL3     0.900000E-01   1.00800           0
     10233 MEMB     90       SAPE     N        NH3L    -0.300000       14.0070           0
     10234 MEMB     90       SAPE     HN1      HCL      0.330000       1.00800           0
     10235 MEMB     90       SAPE     HN2      HCL      0.330000       1.00800           0
     10236 MEMB     90       SAPE     HN3      HCL      0.330000       1.00800           0
     10237 MEMB     90       SAPE     C12      CTL2     0.130000       12.0110           0
     10238 MEMB     90       SAPE     H12A     HAL2     0.900000E-01   1.00800           0
     10239 MEMB     90       SAPE     H12B     HAL2     0.900000E-01   1.00800           0
     10240 MEMB     90       SAPE     C11      CTL2    -0.800000E-01   12.0110           0
     10241 MEMB     90       SAPE     H11A     HAL2     0.900000E-01   1.00800           0
     10242 MEMB     90       SAPE     H11B     HAL2     0.900000E-01   1.00800           0
     10243 MEMB     90       SAPE     P        PL        1.50000       30.9740           0
     10244 MEMB     90       SAPE     O13      O2L     -0.780000       15.9994           0
     10245 MEMB     90       SAPE     O14      O2L     -0.780000       15.9994           0
     10246 MEMB     90       SAPE     O12      OSLP    -0.570000       15.9994           0
     10247 MEMB     90       SAPE     O11      OSLP    -0.570000       15.9994           0
     10248 MEMB     90       SAPE     C1       CTL2    -0.800000E-01   12.0110           0
     10249 MEMB     90       SAPE     HA       HAL2     0.900000E-01   1.00800           0
     10250 MEMB     90       SAPE     HB       HAL2     0.900000E-01   1.00800           0
     10251 MEMB     90       SAPE     C2       CTL1     0.170000       12.0110           0
     10252 MEMB     90       SAPE     HS       HAL1     0.900000E-01   1.00800           0
     10253 MEMB     90       SAPE     O21      OSL     -0.490000       15.9994           0
     10254 MEMB     90       SAPE     C21      CL       0.900000       12.0110           0
     10255 MEMB     90       SAPE     O22      OBL     -0.630000       15.9994           0
     10256 MEMB     90       SAPE     C22      CTL2    -0.220000       12.0110           0
     10257 MEMB     90       SAPE     H2R      HAL2     0.900000E-01   1.00800           0
     10258 MEMB     90       SAPE     H2S      HAL2     0.900000E-01   1.00800           0
     10259 MEMB     90       SAPE     C3       CTL2     0.800000E-01   12.0110           0
     10260 MEMB     90       SAPE     HX       HAL2     0.900000E-01   1.00800           0
     10261 MEMB     90       SAPE     HY       HAL2     0.900000E-01   1.00800           0
     10262 MEMB     90       SAPE     O31      OSL     -0.490000       15.9994           0
     10263 MEMB     90       SAPE     C31      CL       0.900000       12.0110           0
     10264 MEMB     90       SAPE     O32      OBL     -0.630000       15.9994           0
     10265 MEMB     90       SAPE     C32      CTL2    -0.220000       12.0110           0
     10266 MEMB     90       SAPE     H2X      HAL2     0.900000E-01   1.00800           0
     10267 MEMB     90       SAPE     H2Y      HAL2     0.900000E-01   1.00800           0
     10268 MEMB     90       SAPE     C23      CTL2    -0.180000       12.0110           0
     10269 MEMB     90       SAPE     H3R      HAL2     0.900000E-01   1.00800           0
     10270 MEMB     90       SAPE     H3S      HAL2     0.900000E-01   1.00800           0
     10271 MEMB     90       SAPE     C24      CTL2    -0.180000       12.0110           0
     10272 MEMB     90       SAPE     H4R      HAL2     0.900000E-01   1.00800           0
     10273 MEMB     90       SAPE     H4S      HAL2     0.900000E-01   1.00800           0
     10274 MEMB     90       SAPE     C25      CEL1    -0.150000       12.0110           0
     10275 MEMB     90       SAPE     H5R      HEL1     0.150000       1.00800           0
     10276 MEMB     90       SAPE     C26      CEL1    -0.150000       12.0110           0
     10277 MEMB     90       SAPE     H6R      HEL1     0.150000       1.00800           0
     10278 MEMB     90       SAPE     C27      CTL2    -0.180000       12.0110           0
     10279 MEMB     90       SAPE     H7R      HAL2     0.900000E-01   1.00800           0
     10280 MEMB     90       SAPE     H7S      HAL2     0.900000E-01   1.00800           0
     10281 MEMB     90       SAPE     C28      CEL1    -0.150000       12.0110           0
     10282 MEMB     90       SAPE     H8R      HEL1     0.150000       1.00800           0
     10283 MEMB     90       SAPE     C29      CEL1    -0.150000       12.0110           0
     10284 MEMB     90       SAPE     H9R      HEL1     0.150000       1.00800           0
     10285 MEMB     90       SAPE     C210     CTL2    -0.180000       12.0110           0
     10286 MEMB     90       SAPE     H10R     HAL2     0.900000E-01   1.00800           0
     10287 MEMB     90       SAPE     H10S     HAL2     0.900000E-01   1.00800           0
     10288 MEMB     90       SAPE     C211     CEL1    -0.150000       12.0110           0
     10289 MEMB     90       SAPE     H11R     HEL1     0.150000       1.00800           0
     10290 MEMB     90       SAPE     C212     CEL1    -0.150000       12.0110           0
     10291 MEMB     90       SAPE     H12R     HEL1     0.150000       1.00800           0
     10292 MEMB     90       SAPE     C213     CTL2    -0.180000       12.0110           0
     10293 MEMB     90       SAPE     H13R     HAL2     0.900000E-01   1.00800           0
     10294 MEMB     90       SAPE     H13S     HAL2     0.900000E-01   1.00800           0
     10295 MEMB     90       SAPE     C214     CEL1    -0.150000       12.0110           0
     10296 MEMB     90       SAPE     H14R     HEL1     0.150000       1.00800           0
     10297 MEMB     90       SAPE     C215     CEL1    -0.150000       12.0110           0
     10298 MEMB     90       SAPE     H15R     HEL1     0.150000       1.00800           0
     10299 MEMB     90       SAPE     C216     CTL2    -0.180000       12.0110           0
     10300 MEMB     90       SAPE     H16R     HAL2     0.900000E-01   1.00800           0
     10301 MEMB     90       SAPE     H16S     HAL2     0.900000E-01   1.00800           0
     10302 MEMB     90       SAPE     C217     CTL2    -0.180000       12.0110           0
     10303 MEMB     90       SAPE     H17R     HAL2     0.900000E-01   1.00800           0
     10304 MEMB     90       SAPE     H17S     HAL2     0.900000E-01   1.00800           0
     10305 MEMB     90       SAPE     C218     CTL2    -0.180000       12.0110           0
     10306 MEMB     90       SAPE     H18R     HAL2     0.900000E-01   1.00800           0
     10307 MEMB     90       SAPE     H18S     HAL2     0.900000E-01   1.00800           0
     10308 MEMB     90       SAPE     C219     CTL2    -0.180000       12.0110           0
     10309 MEMB     90       SAPE     H19R     HAL2     0.900000E-01   1.00800           0
     10310 MEMB     90       SAPE     H19S     HAL2     0.900000E-01   1.00800           0
     10311 MEMB     90       SAPE     C220     CTL3    -0.270000       12.0110           0
     10312 MEMB     90       SAPE     H20R     HAL3     0.900000E-01   1.00800           0
     10313 MEMB     90       SAPE     H20S     HAL3     0.900000E-01   1.00800           0
     10314 MEMB     90       SAPE     H20T     HAL3     0.900000E-01   1.00800           0
     10315 MEMB     90       SAPE     C33      CTL2    -0.180000       12.0110           0
     10316 MEMB     90       SAPE     H3X      HAL2     0.900000E-01   1.00800           0
     10317 MEMB     90       SAPE     H3Y      HAL2     0.900000E-01   1.00800           0
     10318 MEMB     90       SAPE     C34      CTL2    -0.180000       12.0110           0
     10319 MEMB     90       SAPE     H4X      HAL2     0.900000E-01   1.00800           0
     10320 MEMB     90       SAPE     H4Y      HAL2     0.900000E-01   1.00800           0
     10321 MEMB     90       SAPE     C35      CTL2    -0.180000       12.0110           0
     10322 MEMB     90       SAPE     H5X      HAL2     0.900000E-01   1.00800           0
     10323 MEMB     90       SAPE     H5Y      HAL2     0.900000E-01   1.00800           0
     10324 MEMB     90       SAPE     C36      CTL2    -0.180000       12.0110           0
     10325 MEMB     90       SAPE     H6X      HAL2     0.900000E-01   1.00800           0
     10326 MEMB     90       SAPE     H6Y      HAL2     0.900000E-01   1.00800           0
     10327 MEMB     90       SAPE     C37      CTL2    -0.180000       12.0110           0
     10328 MEMB     90       SAPE     H7X      HAL2     0.900000E-01   1.00800           0
     10329 MEMB     90       SAPE     H7Y      HAL2     0.900000E-01   1.00800           0
     10330 MEMB     90       SAPE     C38      CTL2    -0.180000       12.0110           0
     10331 MEMB     90       SAPE     H8X      HAL2     0.900000E-01   1.00800           0
     10332 MEMB     90       SAPE     H8Y      HAL2     0.900000E-01   1.00800           0
     10333 MEMB     90       SAPE     C39      CTL2    -0.180000       12.0110           0
     10334 MEMB     90       SAPE     H9X      HAL2     0.900000E-01   1.00800           0
     10335 MEMB     90       SAPE     H9Y      HAL2     0.900000E-01   1.00800           0
     10336 MEMB     90       SAPE     C310     CTL2    -0.180000       12.0110           0
     10337 MEMB     90       SAPE     H10X     HAL2     0.900000E-01   1.00800           0
     10338 MEMB     90       SAPE     H10Y     HAL2     0.900000E-01   1.00800           0
     10339 MEMB     90       SAPE     C311     CTL2    -0.180000       12.0110           0
     10340 MEMB     90       SAPE     H11X     HAL2     0.900000E-01   1.00800           0
     10341 MEMB     90       SAPE     H11Y     HAL2     0.900000E-01   1.00800           0
     10342 MEMB     90       SAPE     C312     CTL2    -0.180000       12.0110           0
     10343 MEMB     90       SAPE     H12X     HAL2     0.900000E-01   1.00800           0
     10344 MEMB     90       SAPE     H12Y     HAL2     0.900000E-01   1.00800           0
     10345 MEMB     90       SAPE     C313     CTL2    -0.180000       12.0110           0
     10346 MEMB     90       SAPE     H13X     HAL2     0.900000E-01   1.00800           0
     10347 MEMB     90       SAPE     H13Y     HAL2     0.900000E-01   1.00800           0
     10348 MEMB     90       SAPE     C314     CTL2    -0.180000       12.0110           0
     10349 MEMB     90       SAPE     H14X     HAL2     0.900000E-01   1.00800           0
     10350 MEMB     90       SAPE     H14Y     HAL2     0.900000E-01   1.00800           0
     10351 MEMB     90       SAPE     C315     CTL2    -0.180000       12.0110           0
     10352 MEMB     90       SAPE     H15X     HAL2     0.900000E-01   1.00800           0
     10353 MEMB     90       SAPE     H15Y     HAL2     0.900000E-01   1.00800           0
     10354 MEMB     90       SAPE     C316     CTL2    -0.180000       12.0110           0
     10355 MEMB     90       SAPE     H16X     HAL2     0.900000E-01   1.00800           0
     10356 MEMB     90       SAPE     H16Y     HAL2     0.900000E-01   1.00800           0
     10357 MEMB     90       SAPE     C317     CTL2    -0.180000       12.0110           0
     10358 MEMB     90       SAPE     H17X     HAL2     0.900000E-01   1.00800           0
     10359 MEMB     90       SAPE     H17Y     HAL2     0.900000E-01   1.00800           0
     10360 MEMB     90       SAPE     C318     CTL3    -0.270000       12.0110           0
     10361 MEMB     90       SAPE     H18X     HAL3     0.900000E-01   1.00800           0
     10362 MEMB     90       SAPE     H18Y     HAL3     0.900000E-01   1.00800           0
     10363 MEMB     90       SAPE     H18Z     HAL3     0.900000E-01   1.00800           0
     10364 MEMB     91       OSM      N        NTL     -0.600000       14.0070           0
     10365 MEMB     91       OSM      C15      CTL5    -0.350000       12.0110           0
     10366 MEMB     91       OSM      H15A     HL       0.250000       1.00800           0
     10367 MEMB     91       OSM      H15B     HL       0.250000       1.00800           0
     10368 MEMB     91       OSM      H15C     HL       0.250000       1.00800           0
     10369 MEMB     91       OSM      C14      CTL5    -0.350000       12.0110           0
     10370 MEMB     91       OSM      H14A     HL       0.250000       1.00800           0
     10371 MEMB     91       OSM      H14B     HL       0.250000       1.00800           0
     10372 MEMB     91       OSM      H14C     HL       0.250000       1.00800           0
     10373 MEMB     91       OSM      C13      CTL5    -0.350000       12.0110           0
     10374 MEMB     91       OSM      H13A     HL       0.250000       1.00800           0
     10375 MEMB     91       OSM      H13B     HL       0.250000       1.00800           0
     10376 MEMB     91       OSM      H13C     HL       0.250000       1.00800           0
     10377 MEMB     91       OSM      C12      CTL2    -0.100000       12.0110           0
     10378 MEMB     91       OSM      H12A     HL       0.250000       1.00800           0
     10379 MEMB     91       OSM      H12B     HL       0.250000       1.00800           0
     10380 MEMB     91       OSM      C11      CTL2    -0.800000E-01   12.0110           0
     10381 MEMB     91       OSM      H11A     HAL2     0.900000E-01   1.00800           0
     10382 MEMB     91       OSM      H11B     HAL2     0.900000E-01   1.00800           0
     10383 MEMB     91       OSM      P        PL        1.50000       30.9740           0
     10384 MEMB     91       OSM      O13      O2L     -0.780000       15.9994           0
     10385 MEMB     91       OSM      O14      O2L     -0.780000       15.9994           0
     10386 MEMB     91       OSM      O11      OSLP    -0.570000       15.9994           0
     10387 MEMB     91       OSM      O12      OSLP    -0.570000       15.9994           0
     10388 MEMB     91       OSM      C1S      CTL2    -0.800000E-01   12.0110           0
     10389 MEMB     91       OSM      H1S      HAL2     0.900000E-01   1.00800           0
     10390 MEMB     91       OSM      H1T      HAL2     0.900000E-01   1.00800           0
     10391 MEMB     91       OSM      NF       NHL     -0.700000       14.0070           0
     10392 MEMB     91       OSM      HNF      H        0.350000       1.00800           0
     10393 MEMB     91       OSM      C2S      CTL1     0.300000       12.0110           0
     10394 MEMB     91       OSM      H2S      HAL1     0.500000E-01   1.00800           0
     10395 MEMB     91       OSM      C3S      CTO1     0.500000       12.0110           0
     10396 MEMB     91       OSM      H3S      HAL1    -0.110000       1.00800           0
     10397 MEMB     91       OSM      O3       OHL     -0.690000       15.9994           0
     10398 MEMB     91       OSM      HO3      HOL      0.300000       1.00800           0
     10399 MEMB     91       OSM      C4S      CEL3    -0.150000       12.0110           0
     10400 MEMB     91       OSM      H4S      HEL1     0.150000       1.00800           0
     10401 MEMB     91       OSM      C5S      CEL3    -0.150000       12.0110           0
     10402 MEMB     91       OSM      H5S      HEL1     0.150000       1.00800           0
     10403 MEMB     91       OSM      C6S      CTL2    -0.180000       12.0110           0
     10404 MEMB     91       OSM      H6S      HAL2     0.900000E-01   1.00800           0
     10405 MEMB     91       OSM      H6T      HAL2     0.900000E-01   1.00800           0
     10406 MEMB     91       OSM      C7S      CTL2    -0.180000       12.0110           0
     10407 MEMB     91       OSM      H7S      HAL2     0.900000E-01   1.00800           0
     10408 MEMB     91       OSM      H7T      HAL2     0.900000E-01   1.00800           0
     10409 MEMB     91       OSM      C8S      CTL2    -0.180000       12.0110           0
     10410 MEMB     91       OSM      H8S      HAL2     0.900000E-01   1.00800           0
     10411 MEMB     91       OSM      H8T      HAL2     0.900000E-01   1.00800           0
     10412 MEMB     91       OSM      C9S      CTL2    -0.180000       12.0110           0
     10413 MEMB     91       OSM      H9S      HAL2     0.900000E-01   1.00800           0
     10414 MEMB     91       OSM      H9T      HAL2     0.900000E-01   1.00800           0
     10415 MEMB     91       OSM      C10S     CTL2    -0.180000       12.0110           0
     10416 MEMB     91       OSM      H10S     HAL2     0.900000E-01   1.00800           0
     10417 MEMB     91       OSM      H10T     HAL2     0.900000E-01   1.00800           0
     10418 MEMB     91       OSM      C11S     CTL2    -0.180000       12.0110           0
     10419 MEMB     91       OSM      H11S     HAL2     0.900000E-01   1.00800           0
     10420 MEMB     91       OSM      H11T     HAL2     0.900000E-01   1.00800           0
     10421 MEMB     91       OSM      C12S     CTL2    -0.180000       12.0110           0
     10422 MEMB     91       OSM      H12S     HAL2     0.900000E-01   1.00800           0
     10423 MEMB     91       OSM      H12T     HAL2     0.900000E-01   1.00800           0
     10424 MEMB     91       OSM      C13S     CTL2    -0.180000       12.0110           0
     10425 MEMB     91       OSM      H13S     HAL2     0.900000E-01   1.00800           0
     10426 MEMB     91       OSM      H13T     HAL2     0.900000E-01   1.00800           0
     10427 MEMB     91       OSM      C14S     CTL2    -0.180000       12.0110           0
     10428 MEMB     91       OSM      H14S     HAL2     0.900000E-01   1.00800           0
     10429 MEMB     91       OSM      H14T     HAL2     0.900000E-01   1.00800           0
     10430 MEMB     91       OSM      C15S     CTL2    -0.180000       12.0110           0
     10431 MEMB     91       OSM      H15S     HAL2     0.900000E-01   1.00800           0
     10432 MEMB     91       OSM      H15T     HAL2     0.900000E-01   1.00800           0
     10433 MEMB     91       OSM      C16S     CTL2    -0.180000       12.0110           0
     10434 MEMB     91       OSM      H16S     HAL2     0.900000E-01   1.00800           0
     10435 MEMB     91       OSM      H16T     HAL2     0.900000E-01   1.00800           0
     10436 MEMB     91       OSM      C17S     CTL2    -0.180000       12.0110           0
     10437 MEMB     91       OSM      H17S     HAL2     0.900000E-01   1.00800           0
     10438 MEMB     91       OSM      H17T     HAL2     0.900000E-01   1.00800           0
     10439 MEMB     91       OSM      C18S     CTL3    -0.270000       12.0110           0
     10440 MEMB     91       OSM      H18S     HAL3     0.900000E-01   1.00800           0
     10441 MEMB     91       OSM      H18T     HAL3     0.900000E-01   1.00800           0
     10442 MEMB     91       OSM      H18U     HAL3     0.900000E-01   1.00800           0
     10443 MEMB     91       OSM      C1F      C        0.550000       12.0110           0
     10444 MEMB     91       OSM      OF       O       -0.600000       15.9994           0
     10445 MEMB     91       OSM      C2F      CTL2    -0.700000E-01   12.0110           0
     10446 MEMB     91       OSM      H2F      HAL2     0.600000E-01   1.00800           0
     10447 MEMB     91       OSM      H2G      HAL2     0.600000E-01   1.00800           0
     10448 MEMB     91       OSM      C3F      CTL2    -0.180000       12.0110           0
     10449 MEMB     91       OSM      H3F      HAL2     0.900000E-01   1.00800           0
     10450 MEMB     91       OSM      H3G      HAL2     0.900000E-01   1.00800           0
     10451 MEMB     91       OSM      C4F      CTL2    -0.180000       12.0110           0
     10452 MEMB     91       OSM      H4F      HAL2     0.900000E-01   1.00800           0
     10453 MEMB     91       OSM      H4G      HAL2     0.900000E-01   1.00800           0
     10454 MEMB     91       OSM      C5F      CTL2    -0.180000       12.0110           0
     10455 MEMB     91       OSM      H5F      HAL2     0.900000E-01   1.00800           0
     10456 MEMB     91       OSM      H5G      HAL2     0.900000E-01   1.00800           0
     10457 MEMB     91       OSM      C6F      CTL2    -0.180000       12.0110           0
     10458 MEMB     91       OSM      H6F      HAL2     0.900000E-01   1.00800           0
     10459 MEMB     91       OSM      H6G      HAL2     0.900000E-01   1.00800           0
     10460 MEMB     91       OSM      C7F      CTL2    -0.180000       12.0110           0
     10461 MEMB     91       OSM      H7F      HAL2     0.900000E-01   1.00800           0
     10462 MEMB     91       OSM      H7G      HAL2     0.900000E-01   1.00800           0
     10463 MEMB     91       OSM      C8F      CTL2    -0.180000       12.0110           0
     10464 MEMB     91       OSM      H8F      HAL2     0.900000E-01   1.00800           0
     10465 MEMB     91       OSM      H8G      HAL2     0.900000E-01   1.00800           0
     10466 MEMB     91       OSM      C9F      CEL1    -0.150000       12.0110           0
     10467 MEMB     91       OSM      H9F      HEL1     0.150000       1.00800           0
     10468 MEMB     91       OSM      C10F     CEL1    -0.150000       12.0110           0
     10469 MEMB     91       OSM      H10F     HEL1     0.150000       1.00800           0
     10470 MEMB     91       OSM      C11F     CTL2    -0.180000       12.0110           0
     10471 MEMB     91       OSM      H11F     HAL2     0.900000E-01   1.00800           0
     10472 MEMB     91       OSM      H11G     HAL2     0.900000E-01   1.00800           0
     10473 MEMB     91       OSM      C12F     CTL2    -0.180000       12.0110           0
     10474 MEMB     91       OSM      H12F     HAL2     0.900000E-01   1.00800           0
     10475 MEMB     91       OSM      H12G     HAL2     0.900000E-01   1.00800           0
     10476 MEMB     91       OSM      C13F     CTL2    -0.180000       12.0110           0
     10477 MEMB     91       OSM      H13F     HAL2     0.900000E-01   1.00800           0
     10478 MEMB     91       OSM      H13G     HAL2     0.900000E-01   1.00800           0
     10479 MEMB     91       OSM      C14F     CTL2    -0.180000       12.0110           0
     10480 MEMB     91       OSM      H14F     HAL2     0.900000E-01   1.00800           0
     10481 MEMB     91       OSM      H14G     HAL2     0.900000E-01   1.00800           0
     10482 MEMB     91       OSM      C15F     CTL2    -0.180000       12.0110           0
     10483 MEMB     91       OSM      H15F     HAL2     0.900000E-01   1.00800           0
     10484 MEMB     91       OSM      H15G     HAL2     0.900000E-01   1.00800           0
     10485 MEMB     91       OSM      C16F     CTL2    -0.180000       12.0110           0
     10486 MEMB     91       OSM      H16F     HAL2     0.900000E-01   1.00800           0
     10487 MEMB     91       OSM      H16G     HAL2     0.900000E-01   1.00800           0
     10488 MEMB     91       OSM      C17F     CTL2    -0.180000       12.0110           0
     10489 MEMB     91       OSM      H17F     HAL2     0.900000E-01   1.00800           0
     10490 MEMB     91       OSM      H17G     HAL2     0.900000E-01   1.00800           0
     10491 MEMB     91       OSM      C18F     CTL3    -0.270000       12.0110           0
     10492 MEMB     91       OSM      H18F     HAL3     0.900000E-01   1.00800           0
     10493 MEMB     91       OSM      H18G     HAL3     0.900000E-01   1.00800           0
     10494 MEMB     91       OSM      H18H     HAL3     0.900000E-01   1.00800           0
     10495 MEMB     92       SAPS     N        NH3L    -0.300000       14.0070           0
     10496 MEMB     92       SAPS     HN1      HCL      0.330000       1.00800           0
     10497 MEMB     92       SAPS     HN2      HCL      0.330000       1.00800           0
     10498 MEMB     92       SAPS     HN3      HCL      0.330000       1.00800           0
     10499 MEMB     92       SAPS     C12      CTL1     0.210000       12.0110           0
     10500 MEMB     92       SAPS     H12A     HBL      0.100000       1.00800           0
     10501 MEMB     92       SAPS     C13      CCL      0.340000       12.0110           0
     10502 MEMB     92       SAPS     O13A     OCL     -0.670000       15.9994           0
     10503 MEMB     92       SAPS     O13B     OCL     -0.670000       15.9994           0
     10504 MEMB     92       SAPS     C11      CTL2    -0.800000E-01   12.0110           0
     10505 MEMB     92       SAPS     H11A     HAL2     0.900000E-01   1.00800           0
     10506 MEMB     92       SAPS     H11B     HAL2     0.900000E-01   1.00800           0
     10507 MEMB     92       SAPS     P        PL        1.50000       30.9740           0
     10508 MEMB     92       SAPS     O13      O2L     -0.780000       15.9994           0
     10509 MEMB     92       SAPS     O14      O2L     -0.780000       15.9994           0
     10510 MEMB     92       SAPS     O12      OSLP    -0.570000       15.9994           0
     10511 MEMB     92       SAPS     O11      OSLP    -0.570000       15.9994           0
     10512 MEMB     92       SAPS     C1       CTL2    -0.800000E-01   12.0110           0
     10513 MEMB     92       SAPS     HA       HAL2     0.900000E-01   1.00800           0
     10514 MEMB     92       SAPS     HB       HAL2     0.900000E-01   1.00800           0
     10515 MEMB     92       SAPS     C2       CTL1     0.170000       12.0110           0
     10516 MEMB     92       SAPS     HS       HAL1     0.900000E-01   1.00800           0
     10517 MEMB     92       SAPS     O21      OSL     -0.490000       15.9994           0
     10518 MEMB     92       SAPS     C21      CL       0.900000       12.0110           0
     10519 MEMB     92       SAPS     O22      OBL     -0.630000       15.9994           0
     10520 MEMB     92       SAPS     C22      CTL2    -0.220000       12.0110           0
     10521 MEMB     92       SAPS     H2R      HAL2     0.900000E-01   1.00800           0
     10522 MEMB     92       SAPS     H2S      HAL2     0.900000E-01   1.00800           0
     10523 MEMB     92       SAPS     C3       CTL2     0.800000E-01   12.0110           0
     10524 MEMB     92       SAPS     HX       HAL2     0.900000E-01   1.00800           0
     10525 MEMB     92       SAPS     HY       HAL2     0.900000E-01   1.00800           0
     10526 MEMB     92       SAPS     O31      OSL     -0.490000       15.9994           0
     10527 MEMB     92       SAPS     C31      CL       0.900000       12.0110           0
     10528 MEMB     92       SAPS     O32      OBL     -0.630000       15.9994           0
     10529 MEMB     92       SAPS     C32      CTL2    -0.220000       12.0110           0
     10530 MEMB     92       SAPS     H2X      HAL2     0.900000E-01   1.00800           0
     10531 MEMB     92       SAPS     H2Y      HAL2     0.900000E-01   1.00800           0
     10532 MEMB     92       SAPS     C23      CTL2    -0.180000       12.0110           0
     10533 MEMB     92       SAPS     H3R      HAL2     0.900000E-01   1.00800           0
     10534 MEMB     92       SAPS     H3S      HAL2     0.900000E-01   1.00800           0
     10535 MEMB     92       SAPS     C24      CTL2    -0.180000       12.0110           0
     10536 MEMB     92       SAPS     H4R      HAL2     0.900000E-01   1.00800           0
     10537 MEMB     92       SAPS     H4S      HAL2     0.900000E-01   1.00800           0
     10538 MEMB     92       SAPS     C25      CEL1    -0.150000       12.0110           0
     10539 MEMB     92       SAPS     H5R      HEL1     0.150000       1.00800           0
     10540 MEMB     92       SAPS     C26      CEL1    -0.150000       12.0110           0
     10541 MEMB     92       SAPS     H6R      HEL1     0.150000       1.00800           0
     10542 MEMB     92       SAPS     C27      CTL2    -0.180000       12.0110           0
     10543 MEMB     92       SAPS     H7R      HAL2     0.900000E-01   1.00800           0
     10544 MEMB     92       SAPS     H7S      HAL2     0.900000E-01   1.00800           0
     10545 MEMB     92       SAPS     C28      CEL1    -0.150000       12.0110           0
     10546 MEMB     92       SAPS     H8R      HEL1     0.150000       1.00800           0
     10547 MEMB     92       SAPS     C29      CEL1    -0.150000       12.0110           0
     10548 MEMB     92       SAPS     H9R      HEL1     0.150000       1.00800           0
     10549 MEMB     92       SAPS     C210     CTL2    -0.180000       12.0110           0
     10550 MEMB     92       SAPS     H10R     HAL2     0.900000E-01   1.00800           0
     10551 MEMB     92       SAPS     H10S     HAL2     0.900000E-01   1.00800           0
     10552 MEMB     92       SAPS     C211     CEL1    -0.150000       12.0110           0
     10553 MEMB     92       SAPS     H11R     HEL1     0.150000       1.00800           0
     10554 MEMB     92       SAPS     C212     CEL1    -0.150000       12.0110           0
     10555 MEMB     92       SAPS     H12R     HEL1     0.150000       1.00800           0
     10556 MEMB     92       SAPS     C213     CTL2    -0.180000       12.0110           0
     10557 MEMB     92       SAPS     H13R     HAL2     0.900000E-01   1.00800           0
     10558 MEMB     92       SAPS     H13S     HAL2     0.900000E-01   1.00800           0
     10559 MEMB     92       SAPS     C214     CEL1    -0.150000       12.0110           0
     10560 MEMB     92       SAPS     H14R     HEL1     0.150000       1.00800           0
     10561 MEMB     92       SAPS     C215     CEL1    -0.150000       12.0110           0
     10562 MEMB     92       SAPS     H15R     HEL1     0.150000       1.00800           0
     10563 MEMB     92       SAPS     C216     CTL2    -0.180000       12.0110           0
     10564 MEMB     92       SAPS     H16R     HAL2     0.900000E-01   1.00800           0
     10565 MEMB     92       SAPS     H16S     HAL2     0.900000E-01   1.00800           0
     10566 MEMB     92       SAPS     C217     CTL2    -0.180000       12.0110           0
     10567 MEMB     92       SAPS     H17R     HAL2     0.900000E-01   1.00800           0
     10568 MEMB     92       SAPS     H17S     HAL2     0.900000E-01   1.00800           0
     10569 MEMB     92       SAPS     C218     CTL2    -0.180000       12.0110           0
     10570 MEMB     92       SAPS     H18R     HAL2     0.900000E-01   1.00800           0
     10571 MEMB     92       SAPS     H18S     HAL2     0.900000E-01   1.00800           0
     10572 MEMB     92       SAPS     C219     CTL2    -0.180000       12.0110           0
     10573 MEMB     92       SAPS     H19R     HAL2     0.900000E-01   1.00800           0
     10574 MEMB     92       SAPS     H19S     HAL2     0.900000E-01   1.00800           0
     10575 MEMB     92       SAPS     C220     CTL3    -0.270000       12.0110           0
     10576 MEMB     92       SAPS     H20R     HAL3     0.900000E-01   1.00800           0
     10577 MEMB     92       SAPS     H20S     HAL3     0.900000E-01   1.00800           0
     10578 MEMB     92       SAPS     H20T     HAL3     0.900000E-01   1.00800           0
     10579 MEMB     92       SAPS     C33      CTL2    -0.180000       12.0110           0
     10580 MEMB     92       SAPS     H3X      HAL2     0.900000E-01   1.00800           0
     10581 MEMB     92       SAPS     H3Y      HAL2     0.900000E-01   1.00800           0
     10582 MEMB     92       SAPS     C34      CTL2    -0.180000       12.0110           0
     10583 MEMB     92       SAPS     H4X      HAL2     0.900000E-01   1.00800           0
     10584 MEMB     92       SAPS     H4Y      HAL2     0.900000E-01   1.00800           0
     10585 MEMB     92       SAPS     C35      CTL2    -0.180000       12.0110           0
     10586 MEMB     92       SAPS     H5X      HAL2     0.900000E-01   1.00800           0
     10587 MEMB     92       SAPS     H5Y      HAL2     0.900000E-01   1.00800           0
     10588 MEMB     92       SAPS     C36      CTL2    -0.180000       12.0110           0
     10589 MEMB     92       SAPS     H6X      HAL2     0.900000E-01   1.00800           0
     10590 MEMB     92       SAPS     H6Y      HAL2     0.900000E-01   1.00800           0
     10591 MEMB     92       SAPS     C37      CTL2    -0.180000       12.0110           0
     10592 MEMB     92       SAPS     H7X      HAL2     0.900000E-01   1.00800           0
     10593 MEMB     92       SAPS     H7Y      HAL2     0.900000E-01   1.00800           0
     10594 MEMB     92       SAPS     C38      CTL2    -0.180000       12.0110           0
     10595 MEMB     92       SAPS     H8X      HAL2     0.900000E-01   1.00800           0
     10596 MEMB     92       SAPS     H8Y      HAL2     0.900000E-01   1.00800           0
     10597 MEMB     92       SAPS     C39      CTL2    -0.180000       12.0110           0
     10598 MEMB     92       SAPS     H9X      HAL2     0.900000E-01   1.00800           0
     10599 MEMB     92       SAPS     H9Y      HAL2     0.900000E-01   1.00800           0
     10600 MEMB     92       SAPS     C310     CTL2    -0.180000       12.0110           0
     10601 MEMB     92       SAPS     H10X     HAL2     0.900000E-01   1.00800           0
     10602 MEMB     92       SAPS     H10Y     HAL2     0.900000E-01   1.00800           0
     10603 MEMB     92       SAPS     C311     CTL2    -0.180000       12.0110           0
     10604 MEMB     92       SAPS     H11X     HAL2     0.900000E-01   1.00800           0
     10605 MEMB     92       SAPS     H11Y     HAL2     0.900000E-01   1.00800           0
     10606 MEMB     92       SAPS     C312     CTL2    -0.180000       12.0110           0
     10607 MEMB     92       SAPS     H12X     HAL2     0.900000E-01   1.00800           0
     10608 MEMB     92       SAPS     H12Y     HAL2     0.900000E-01   1.00800           0
     10609 MEMB     92       SAPS     C313     CTL2    -0.180000       12.0110           0
     10610 MEMB     92       SAPS     H13X     HAL2     0.900000E-01   1.00800           0
     10611 MEMB     92       SAPS     H13Y     HAL2     0.900000E-01   1.00800           0
     10612 MEMB     92       SAPS     C314     CTL2    -0.180000       12.0110           0
     10613 MEMB     92       SAPS     H14X     HAL2     0.900000E-01   1.00800           0
     10614 MEMB     92       SAPS     H14Y     HAL2     0.900000E-01   1.00800           0
     10615 MEMB     92       SAPS     C315     CTL2    -0.180000       12.0110           0
     10616 MEMB     92       SAPS     H15X     HAL2     0.900000E-01   1.00800           0
     10617 MEMB     92       SAPS     H15Y     HAL2     0.900000E-01   1.00800           0
     10618 MEMB     92       SAPS     C316     CTL2    -0.180000       12.0110           0
     10619 MEMB     92       SAPS     H16X     HAL2     0.900000E-01   1.00800           0
     10620 MEMB     92       SAPS     H16Y     HAL2     0.900000E-01   1.00800           0
     10621 MEMB     92       SAPS     C317     CTL2    -0.180000       12.0110           0
     10622 MEMB     92       SAPS     H17X     HAL2     0.900000E-01   1.00800           0
     10623 MEMB     92       SAPS     H17Y     HAL2     0.900000E-01   1.00800           0
     10624 MEMB     92       SAPS     C318     CTL3    -0.270000       12.0110           0
     10625 MEMB     92       SAPS     H18X     HAL3     0.900000E-01   1.00800           0
     10626 MEMB     92       SAPS     H18Y     HAL3     0.900000E-01   1.00800           0
     10627 MEMB     92       SAPS     H18Z     HAL3     0.900000E-01   1.00800           0
     10628 MEMB     93       SAPC     N        NTL     -0.600000       14.0070           0
     10629 MEMB     93       SAPC     C12      CTL2    -0.100000       12.0110           0
     10630 MEMB     93       SAPC     H12A     HL       0.250000       1.00800           0
     10631 MEMB     93       SAPC     H12B     HL       0.250000       1.00800           0
     10632 MEMB     93       SAPC     C13      CTL5    -0.350000       12.0110           0
     10633 MEMB     93       SAPC     H13A     HL       0.250000       1.00800           0
     10634 MEMB     93       SAPC     H13B     HL       0.250000       1.00800           0
     10635 MEMB     93       SAPC     H13C     HL       0.250000       1.00800           0
     10636 MEMB     93       SAPC     C14      CTL5    -0.350000       12.0110           0
     10637 MEMB     93       SAPC     H14A     HL       0.250000       1.00800           0
     10638 MEMB     93       SAPC     H14B     HL       0.250000       1.00800           0
     10639 MEMB     93       SAPC     H14C     HL       0.250000       1.00800           0
     10640 MEMB     93       SAPC     C15      CTL5    -0.350000       12.0110           0
     10641 MEMB     93       SAPC     H15A     HL       0.250000       1.00800           0
     10642 MEMB     93       SAPC     H15B     HL       0.250000       1.00800           0
     10643 MEMB     93       SAPC     H15C     HL       0.250000       1.00800           0
     10644 MEMB     93       SAPC     C11      CTL2    -0.800000E-01   12.0110           0
     10645 MEMB     93       SAPC     H11A     HAL2     0.900000E-01   1.00800           0
     10646 MEMB     93       SAPC     H11B     HAL2     0.900000E-01   1.00800           0
     10647 MEMB     93       SAPC     P        PL        1.50000       30.9740           0
     10648 MEMB     93       SAPC     O13      O2L     -0.780000       15.9994           0
     10649 MEMB     93       SAPC     O14      O2L     -0.780000       15.9994           0
     10650 MEMB     93       SAPC     O12      OSLP    -0.570000       15.9994           0
     10651 MEMB     93       SAPC     O11      OSLP    -0.570000       15.9994           0
     10652 MEMB     93       SAPC     C1       CTL2    -0.800000E-01   12.0110           0
     10653 MEMB     93       SAPC     HA       HAL2     0.900000E-01   1.00800           0
     10654 MEMB     93       SAPC     HB       HAL2     0.900000E-01   1.00800           0
     10655 MEMB     93       SAPC     C2       CTL1     0.170000       12.0110           0
     10656 MEMB     93       SAPC     HS       HAL1     0.900000E-01   1.00800           0
     10657 MEMB     93       SAPC     O21      OSL     -0.490000       15.9994           0
     10658 MEMB     93       SAPC     C21      CL       0.900000       12.0110           0
     10659 MEMB     93       SAPC     O22      OBL     -0.630000       15.9994           0
     10660 MEMB     93       SAPC     C22      CTL2    -0.220000       12.0110           0
     10661 MEMB     93       SAPC     H2R      HAL2     0.900000E-01   1.00800           0
     10662 MEMB     93       SAPC     H2S      HAL2     0.900000E-01   1.00800           0
     10663 MEMB     93       SAPC     C3       CTL2     0.800000E-01   12.0110           0
     10664 MEMB     93       SAPC     HX       HAL2     0.900000E-01   1.00800           0
     10665 MEMB     93       SAPC     HY       HAL2     0.900000E-01   1.00800           0
     10666 MEMB     93       SAPC     O31      OSL     -0.490000       15.9994           0
     10667 MEMB     93       SAPC     C31      CL       0.900000       12.0110           0
     10668 MEMB     93       SAPC     O32      OBL     -0.630000       15.9994           0
     10669 MEMB     93       SAPC     C32      CTL2    -0.220000       12.0110           0
     10670 MEMB     93       SAPC     H2X      HAL2     0.900000E-01   1.00800           0
     10671 MEMB     93       SAPC     H2Y      HAL2     0.900000E-01   1.00800           0
     10672 MEMB     93       SAPC     C23      CTL2    -0.180000       12.0110           0
     10673 MEMB     93       SAPC     H3R      HAL2     0.900000E-01   1.00800           0
     10674 MEMB     93       SAPC     H3S      HAL2     0.900000E-01   1.00800           0
     10675 MEMB     93       SAPC     C24      CTL2    -0.180000       12.0110           0
     10676 MEMB     93       SAPC     H4R      HAL2     0.900000E-01   1.00800           0
     10677 MEMB     93       SAPC     H4S      HAL2     0.900000E-01   1.00800           0
     10678 MEMB     93       SAPC     C25      CEL1    -0.150000       12.0110           0
     10679 MEMB     93       SAPC     H5R      HEL1     0.150000       1.00800           0
     10680 MEMB     93       SAPC     C26      CEL1    -0.150000       12.0110           0
     10681 MEMB     93       SAPC     H6R      HEL1     0.150000       1.00800           0
     10682 MEMB     93       SAPC     C27      CTL2    -0.180000       12.0110           0
     10683 MEMB     93       SAPC     H7R      HAL2     0.900000E-01   1.00800           0
     10684 MEMB     93       SAPC     H7S      HAL2     0.900000E-01   1.00800           0
     10685 MEMB     93       SAPC     C28      CEL1    -0.150000       12.0110           0
     10686 MEMB     93       SAPC     H8R      HEL1     0.150000       1.00800           0
     10687 MEMB     93       SAPC     C29      CEL1    -0.150000       12.0110           0
     10688 MEMB     93       SAPC     H9R      HEL1     0.150000       1.00800           0
     10689 MEMB     93       SAPC     C210     CTL2    -0.180000       12.0110           0
     10690 MEMB     93       SAPC     H10R     HAL2     0.900000E-01   1.00800           0
     10691 MEMB     93       SAPC     H10S     HAL2     0.900000E-01   1.00800           0
     10692 MEMB     93       SAPC     C211     CEL1    -0.150000       12.0110           0
     10693 MEMB     93       SAPC     H11R     HEL1     0.150000       1.00800           0
     10694 MEMB     93       SAPC     C212     CEL1    -0.150000       12.0110           0
     10695 MEMB     93       SAPC     H12R     HEL1     0.150000       1.00800           0
     10696 MEMB     93       SAPC     C213     CTL2    -0.180000       12.0110           0
     10697 MEMB     93       SAPC     H13R     HAL2     0.900000E-01   1.00800           0
     10698 MEMB     93       SAPC     H13S     HAL2     0.900000E-01   1.00800           0
     10699 MEMB     93       SAPC     C214     CEL1    -0.150000       12.0110           0
     10700 MEMB     93       SAPC     H14R     HEL1     0.150000       1.00800           0
     10701 MEMB     93       SAPC     C215     CEL1    -0.150000       12.0110           0
     10702 MEMB     93       SAPC     H15R     HEL1     0.150000       1.00800           0
     10703 MEMB     93       SAPC     C216     CTL2    -0.180000       12.0110           0
     10704 MEMB     93       SAPC     H16R     HAL2     0.900000E-01   1.00800           0
     10705 MEMB     93       SAPC     H16S     HAL2     0.900000E-01   1.00800           0
     10706 MEMB     93       SAPC     C217     CTL2    -0.180000       12.0110           0
     10707 MEMB     93       SAPC     H17R     HAL2     0.900000E-01   1.00800           0
     10708 MEMB     93       SAPC     H17S     HAL2     0.900000E-01   1.00800           0
     10709 MEMB     93       SAPC     C218     CTL2    -0.270000       12.0110           0
     10710 MEMB     93       SAPC     H18R     HAL2     0.900000E-01   1.00800           0
     10711 MEMB     93       SAPC     H18S     HAL2     0.900000E-01   1.00800           0
     10712 MEMB     93       SAPC     C219     CTL2    -0.180000       12.0110           0
     10713 MEMB     93       SAPC     H19R     HAL2     0.900000E-01   1.00800           0
     10714 MEMB     93       SAPC     H19S     HAL2     0.900000E-01   1.00800           0
     10715 MEMB     93       SAPC     C220     CTL3    -0.180000       12.0110           0
     10716 MEMB     93       SAPC     H20R     HAL3     0.900000E-01   1.00800           0
     10717 MEMB     93       SAPC     H20S     HAL3     0.900000E-01   1.00800           0
     10718 MEMB     93       SAPC     H20T     HAL3     0.900000E-01   1.00800           0
     10719 MEMB     93       SAPC     C33      CTL2    -0.180000       12.0110           0
     10720 MEMB     93       SAPC     H3X      HAL2     0.900000E-01   1.00800           0
     10721 MEMB     93       SAPC     H3Y      HAL2     0.900000E-01   1.00800           0
     10722 MEMB     93       SAPC     C34      CTL2    -0.180000       12.0110           0
     10723 MEMB     93       SAPC     H4X      HAL2     0.900000E-01   1.00800           0
     10724 MEMB     93       SAPC     H4Y      HAL2     0.900000E-01   1.00800           0
     10725 MEMB     93       SAPC     C35      CTL2    -0.180000       12.0110           0
     10726 MEMB     93       SAPC     H5X      HAL2     0.900000E-01   1.00800           0
     10727 MEMB     93       SAPC     H5Y      HAL2     0.900000E-01   1.00800           0
     10728 MEMB     93       SAPC     C36      CTL2    -0.180000       12.0110           0
     10729 MEMB     93       SAPC     H6X      HAL2     0.900000E-01   1.00800           0
     10730 MEMB     93       SAPC     H6Y      HAL2     0.900000E-01   1.00800           0
     10731 MEMB     93       SAPC     C37      CTL2    -0.180000       12.0110           0
     10732 MEMB     93       SAPC     H7X      HAL2     0.900000E-01   1.00800           0
     10733 MEMB     93       SAPC     H7Y      HAL2     0.900000E-01   1.00800           0
     10734 MEMB     93       SAPC     C38      CTL2    -0.180000       12.0110           0
     10735 MEMB     93       SAPC     H8X      HAL2     0.900000E-01   1.00800           0
     10736 MEMB     93       SAPC     H8Y      HAL2     0.900000E-01   1.00800           0
     10737 MEMB     93       SAPC     C39      CTL2    -0.180000       12.0110           0
     10738 MEMB     93       SAPC     H9X      HAL2     0.900000E-01   1.00800           0
     10739 MEMB     93       SAPC     H9Y      HAL2     0.900000E-01   1.00800           0
     10740 MEMB     93       SAPC     C310     CTL2    -0.180000       12.0110           0
     10741 MEMB     93       SAPC     H10X     HAL2     0.900000E-01   1.00800           0
     10742 MEMB     93       SAPC     H10Y     HAL2     0.900000E-01   1.00800           0
     10743 MEMB     93       SAPC     C311     CTL2    -0.180000       12.0110           0
     10744 MEMB     93       SAPC     H11X     HAL2     0.900000E-01   1.00800           0
     10745 MEMB     93       SAPC     H11Y     HAL2     0.900000E-01   1.00800           0
     10746 MEMB     93       SAPC     C312     CTL2    -0.180000       12.0110           0
     10747 MEMB     93       SAPC     H12X     HAL2     0.900000E-01   1.00800           0
     10748 MEMB     93       SAPC     H12Y     HAL2     0.900000E-01   1.00800           0
     10749 MEMB     93       SAPC     C313     CTL2    -0.180000       12.0110           0
     10750 MEMB     93       SAPC     H13X     HAL2     0.900000E-01   1.00800           0
     10751 MEMB     93       SAPC     H13Y     HAL2     0.900000E-01   1.00800           0
     10752 MEMB     93       SAPC     C314     CTL2    -0.180000       12.0110           0
     10753 MEMB     93       SAPC     H14X     HAL2     0.900000E-01   1.00800           0
     10754 MEMB     93       SAPC     H14Y     HAL2     0.900000E-01   1.00800           0
     10755 MEMB     93       SAPC     C315     CTL2    -0.180000       12.0110           0
     10756 MEMB     93       SAPC     H15X     HAL2     0.900000E-01   1.00800           0
     10757 MEMB     93       SAPC     H15Y     HAL2     0.900000E-01   1.00800           0
     10758 MEMB     93       SAPC     C316     CTL2    -0.180000       12.0110           0
     10759 MEMB     93       SAPC     H16X     HAL2     0.900000E-01   1.00800           0
     10760 MEMB     93       SAPC     H16Y     HAL2     0.900000E-01   1.00800           0
     10761 MEMB     93       SAPC     C317     CTL2    -0.180000       12.0110           0
     10762 MEMB     93       SAPC     H17X     HAL2     0.900000E-01   1.00800           0
     10763 MEMB     93       SAPC     H17Y     HAL2     0.900000E-01   1.00800           0
     10764 MEMB     93       SAPC     C318     CTL3    -0.270000       12.0110           0
     10765 MEMB     93       SAPC     H18X     HAL3     0.900000E-01   1.00800           0
     10766 MEMB     93       SAPC     H18Y     HAL3     0.900000E-01   1.00800           0
     10767 MEMB     93       SAPC     H18Z     HAL3     0.900000E-01   1.00800           0
     10768 MEMB     94       SAPE     N        NH3L    -0.300000       14.0070           0
     10769 MEMB     94       SAPE     HN1      HCL      0.330000       1.00800           0
     10770 MEMB     94       SAPE     HN2      HCL      0.330000       1.00800           0
     10771 MEMB     94       SAPE     HN3      HCL      0.330000       1.00800           0
     10772 MEMB     94       SAPE     C12      CTL2     0.130000       12.0110           0
     10773 MEMB     94       SAPE     H12A     HAL2     0.900000E-01   1.00800           0
     10774 MEMB     94       SAPE     H12B     HAL2     0.900000E-01   1.00800           0
     10775 MEMB     94       SAPE     C11      CTL2    -0.800000E-01   12.0110           0
     10776 MEMB     94       SAPE     H11A     HAL2     0.900000E-01   1.00800           0
     10777 MEMB     94       SAPE     H11B     HAL2     0.900000E-01   1.00800           0
     10778 MEMB     94       SAPE     P        PL        1.50000       30.9740           0
     10779 MEMB     94       SAPE     O13      O2L     -0.780000       15.9994           0
     10780 MEMB     94       SAPE     O14      O2L     -0.780000       15.9994           0
     10781 MEMB     94       SAPE     O12      OSLP    -0.570000       15.9994           0
     10782 MEMB     94       SAPE     O11      OSLP    -0.570000       15.9994           0
     10783 MEMB     94       SAPE     C1       CTL2    -0.800000E-01   12.0110           0
     10784 MEMB     94       SAPE     HA       HAL2     0.900000E-01   1.00800           0
     10785 MEMB     94       SAPE     HB       HAL2     0.900000E-01   1.00800           0
     10786 MEMB     94       SAPE     C2       CTL1     0.170000       12.0110           0
     10787 MEMB     94       SAPE     HS       HAL1     0.900000E-01   1.00800           0
     10788 MEMB     94       SAPE     O21      OSL     -0.490000       15.9994           0
     10789 MEMB     94       SAPE     C21      CL       0.900000       12.0110           0
     10790 MEMB     94       SAPE     O22      OBL     -0.630000       15.9994           0
     10791 MEMB     94       SAPE     C22      CTL2    -0.220000       12.0110           0
     10792 MEMB     94       SAPE     H2R      HAL2     0.900000E-01   1.00800           0
     10793 MEMB     94       SAPE     H2S      HAL2     0.900000E-01   1.00800           0
     10794 MEMB     94       SAPE     C3       CTL2     0.800000E-01   12.0110           0
     10795 MEMB     94       SAPE     HX       HAL2     0.900000E-01   1.00800           0
     10796 MEMB     94       SAPE     HY       HAL2     0.900000E-01   1.00800           0
     10797 MEMB     94       SAPE     O31      OSL     -0.490000       15.9994           0
     10798 MEMB     94       SAPE     C31      CL       0.900000       12.0110           0
     10799 MEMB     94       SAPE     O32      OBL     -0.630000       15.9994           0
     10800 MEMB     94       SAPE     C32      CTL2    -0.220000       12.0110           0
     10801 MEMB     94       SAPE     H2X      HAL2     0.900000E-01   1.00800           0
     10802 MEMB     94       SAPE     H2Y      HAL2     0.900000E-01   1.00800           0
     10803 MEMB     94       SAPE     C23      CTL2    -0.180000       12.0110           0
     10804 MEMB     94       SAPE     H3R      HAL2     0.900000E-01   1.00800           0
     10805 MEMB     94       SAPE     H3S      HAL2     0.900000E-01   1.00800           0
     10806 MEMB     94       SAPE     C24      CTL2    -0.180000       12.0110           0
     10807 MEMB     94       SAPE     H4R      HAL2     0.900000E-01   1.00800           0
     10808 MEMB     94       SAPE     H4S      HAL2     0.900000E-01   1.00800           0
     10809 MEMB     94       SAPE     C25      CEL1    -0.150000       12.0110           0
     10810 MEMB     94       SAPE     H5R      HEL1     0.150000       1.00800           0
     10811 MEMB     94       SAPE     C26      CEL1    -0.150000       12.0110           0
     10812 MEMB     94       SAPE     H6R      HEL1     0.150000       1.00800           0
     10813 MEMB     94       SAPE     C27      CTL2    -0.180000       12.0110           0
     10814 MEMB     94       SAPE     H7R      HAL2     0.900000E-01   1.00800           0
     10815 MEMB     94       SAPE     H7S      HAL2     0.900000E-01   1.00800           0
     10816 MEMB     94       SAPE     C28      CEL1    -0.150000       12.0110           0
     10817 MEMB     94       SAPE     H8R      HEL1     0.150000       1.00800           0
     10818 MEMB     94       SAPE     C29      CEL1    -0.150000       12.0110           0
     10819 MEMB     94       SAPE     H9R      HEL1     0.150000       1.00800           0
     10820 MEMB     94       SAPE     C210     CTL2    -0.180000       12.0110           0
     10821 MEMB     94       SAPE     H10R     HAL2     0.900000E-01   1.00800           0
     10822 MEMB     94       SAPE     H10S     HAL2     0.900000E-01   1.00800           0
     10823 MEMB     94       SAPE     C211     CEL1    -0.150000       12.0110           0
     10824 MEMB     94       SAPE     H11R     HEL1     0.150000       1.00800           0
     10825 MEMB     94       SAPE     C212     CEL1    -0.150000       12.0110           0
     10826 MEMB     94       SAPE     H12R     HEL1     0.150000       1.00800           0
     10827 MEMB     94       SAPE     C213     CTL2    -0.180000       12.0110           0
     10828 MEMB     94       SAPE     H13R     HAL2     0.900000E-01   1.00800           0
     10829 MEMB     94       SAPE     H13S     HAL2     0.900000E-01   1.00800           0
     10830 MEMB     94       SAPE     C214     CEL1    -0.150000       12.0110           0
     10831 MEMB     94       SAPE     H14R     HEL1     0.150000       1.00800           0
     10832 MEMB     94       SAPE     C215     CEL1    -0.150000       12.0110           0
     10833 MEMB     94       SAPE     H15R     HEL1     0.150000       1.00800           0
     10834 MEMB     94       SAPE     C216     CTL2    -0.180000       12.0110           0
     10835 MEMB     94       SAPE     H16R     HAL2     0.900000E-01   1.00800           0
     10836 MEMB     94       SAPE     H16S     HAL2     0.900000E-01   1.00800           0
     10837 MEMB     94       SAPE     C217     CTL2    -0.180000       12.0110           0
     10838 MEMB     94       SAPE     H17R     HAL2     0.900000E-01   1.00800           0
     10839 MEMB     94       SAPE     H17S     HAL2     0.900000E-01   1.00800           0
     10840 MEMB     94       SAPE     C218     CTL2    -0.180000       12.0110           0
     10841 MEMB     94       SAPE     H18R     HAL2     0.900000E-01   1.00800           0
     10842 MEMB     94       SAPE     H18S     HAL2     0.900000E-01   1.00800           0
     10843 MEMB     94       SAPE     C219     CTL2    -0.180000       12.0110           0
     10844 MEMB     94       SAPE     H19R     HAL2     0.900000E-01   1.00800           0
     10845 MEMB     94       SAPE     H19S     HAL2     0.900000E-01   1.00800           0
     10846 MEMB     94       SAPE     C220     CTL3    -0.270000       12.0110           0
     10847 MEMB     94       SAPE     H20R     HAL3     0.900000E-01   1.00800           0
     10848 MEMB     94       SAPE     H20S     HAL3     0.900000E-01   1.00800           0
     10849 MEMB     94       SAPE     H20T     HAL3     0.900000E-01   1.00800           0
     10850 MEMB     94       SAPE     C33      CTL2    -0.180000       12.0110           0
     10851 MEMB     94       SAPE     H3X      HAL2     0.900000E-01   1.00800           0
     10852 MEMB     94       SAPE     H3Y      HAL2     0.900000E-01   1.00800           0
     10853 MEMB     94       SAPE     C34      CTL2    -0.180000       12.0110           0
     10854 MEMB     94       SAPE     H4X      HAL2     0.900000E-01   1.00800           0
     10855 MEMB     94       SAPE     H4Y      HAL2     0.900000E-01   1.00800           0
     10856 MEMB     94       SAPE     C35      CTL2    -0.180000       12.0110           0
     10857 MEMB     94       SAPE     H5X      HAL2     0.900000E-01   1.00800           0
     10858 MEMB     94       SAPE     H5Y      HAL2     0.900000E-01   1.00800           0
     10859 MEMB     94       SAPE     C36      CTL2    -0.180000       12.0110           0
     10860 MEMB     94       SAPE     H6X      HAL2     0.900000E-01   1.00800           0
     10861 MEMB     94       SAPE     H6Y      HAL2     0.900000E-01   1.00800           0
     10862 MEMB     94       SAPE     C37      CTL2    -0.180000       12.0110           0
     10863 MEMB     94       SAPE     H7X      HAL2     0.900000E-01   1.00800           0
     10864 MEMB     94       SAPE     H7Y      HAL2     0.900000E-01   1.00800           0
     10865 MEMB     94       SAPE     C38      CTL2    -0.180000       12.0110           0
     10866 MEMB     94       SAPE     H8X      HAL2     0.900000E-01   1.00800           0
     10867 MEMB     94       SAPE     H8Y      HAL2     0.900000E-01   1.00800           0
     10868 MEMB     94       SAPE     C39      CTL2    -0.180000       12.0110           0
     10869 MEMB     94       SAPE     H9X      HAL2     0.900000E-01   1.00800           0
     10870 MEMB     94       SAPE     H9Y      HAL2     0.900000E-01   1.00800           0
     10871 MEMB     94       SAPE     C310     CTL2    -0.180000       12.0110           0
     10872 MEMB     94       SAPE     H10X     HAL2     0.900000E-01   1.00800           0
     10873 MEMB     94       SAPE     H10Y     HAL2     0.900000E-01   1.00800           0
     10874 MEMB     94       SAPE     C311     CTL2    -0.180000       12.0110           0
     10875 MEMB     94       SAPE     H11X     HAL2     0.900000E-01   1.00800           0
     10876 MEMB     94       SAPE     H11Y     HAL2     0.900000E-01   1.00800           0
     10877 MEMB     94       SAPE     C312     CTL2    -0.180000       12.0110           0
     10878 MEMB     94       SAPE     H12X     HAL2     0.900000E-01   1.00800           0
     10879 MEMB     94       SAPE     H12Y     HAL2     0.900000E-01   1.00800           0
     10880 MEMB     94       SAPE     C313     CTL2    -0.180000       12.0110           0
     10881 MEMB     94       SAPE     H13X     HAL2     0.900000E-01   1.00800           0
     10882 MEMB     94       SAPE     H13Y     HAL2     0.900000E-01   1.00800           0
     10883 MEMB     94       SAPE     C314     CTL2    -0.180000       12.0110           0
     10884 MEMB     94       SAPE     H14X     HAL2     0.900000E-01   1.00800           0
     10885 MEMB     94       SAPE     H14Y     HAL2     0.900000E-01   1.00800           0
     10886 MEMB     94       SAPE     C315     CTL2    -0.180000       12.0110           0
     10887 MEMB     94       SAPE     H15X     HAL2     0.900000E-01   1.00800           0
     10888 MEMB     94       SAPE     H15Y     HAL2     0.900000E-01   1.00800           0
     10889 MEMB     94       SAPE     C316     CTL2    -0.180000       12.0110           0
     10890 MEMB     94       SAPE     H16X     HAL2     0.900000E-01   1.00800           0
     10891 MEMB     94       SAPE     H16Y     HAL2     0.900000E-01   1.00800           0
     10892 MEMB     94       SAPE     C317     CTL2    -0.180000       12.0110           0
     10893 MEMB     94       SAPE     H17X     HAL2     0.900000E-01   1.00800           0
     10894 MEMB     94       SAPE     H17Y     HAL2     0.900000E-01   1.00800           0
     10895 MEMB     94       SAPE     C318     CTL3    -0.270000       12.0110           0
     10896 MEMB     94       SAPE     H18X     HAL3     0.900000E-01   1.00800           0
     10897 MEMB     94       SAPE     H18Y     HAL3     0.900000E-01   1.00800           0
     10898 MEMB     94       SAPE     H18Z     HAL3     0.900000E-01   1.00800           0
     10899 MEMB     95       SAPE     N        NH3L    -0.300000       14.0070           0
     10900 MEMB     95       SAPE     HN1      HCL      0.330000       1.00800           0
     10901 MEMB     95       SAPE     HN2      HCL      0.330000       1.00800           0
     10902 MEMB     95       SAPE     HN3      HCL      0.330000       1.00800           0
     10903 MEMB     95       SAPE     C12      CTL2     0.130000       12.0110           0
     10904 MEMB     95       SAPE     H12A     HAL2     0.900000E-01   1.00800           0
     10905 MEMB     95       SAPE     H12B     HAL2     0.900000E-01   1.00800           0
     10906 MEMB     95       SAPE     C11      CTL2    -0.800000E-01   12.0110           0
     10907 MEMB     95       SAPE     H11A     HAL2     0.900000E-01   1.00800           0
     10908 MEMB     95       SAPE     H11B     HAL2     0.900000E-01   1.00800           0
     10909 MEMB     95       SAPE     P        PL        1.50000       30.9740           0
     10910 MEMB     95       SAPE     O13      O2L     -0.780000       15.9994           0
     10911 MEMB     95       SAPE     O14      O2L     -0.780000       15.9994           0
     10912 MEMB     95       SAPE     O12      OSLP    -0.570000       15.9994           0
     10913 MEMB     95       SAPE     O11      OSLP    -0.570000       15.9994           0
     10914 MEMB     95       SAPE     C1       CTL2    -0.800000E-01   12.0110           0
     10915 MEMB     95       SAPE     HA       HAL2     0.900000E-01   1.00800           0
     10916 MEMB     95       SAPE     HB       HAL2     0.900000E-01   1.00800           0
     10917 MEMB     95       SAPE     C2       CTL1     0.170000       12.0110           0
     10918 MEMB     95       SAPE     HS       HAL1     0.900000E-01   1.00800           0
     10919 MEMB     95       SAPE     O21      OSL     -0.490000       15.9994           0
     10920 MEMB     95       SAPE     C21      CL       0.900000       12.0110           0
     10921 MEMB     95       SAPE     O22      OBL     -0.630000       15.9994           0
     10922 MEMB     95       SAPE     C22      CTL2    -0.220000       12.0110           0
     10923 MEMB     95       SAPE     H2R      HAL2     0.900000E-01   1.00800           0
     10924 MEMB     95       SAPE     H2S      HAL2     0.900000E-01   1.00800           0
     10925 MEMB     95       SAPE     C3       CTL2     0.800000E-01   12.0110           0
     10926 MEMB     95       SAPE     HX       HAL2     0.900000E-01   1.00800           0
     10927 MEMB     95       SAPE     HY       HAL2     0.900000E-01   1.00800           0
     10928 MEMB     95       SAPE     O31      OSL     -0.490000       15.9994           0
     10929 MEMB     95       SAPE     C31      CL       0.900000       12.0110           0
     10930 MEMB     95       SAPE     O32      OBL     -0.630000       15.9994           0
     10931 MEMB     95       SAPE     C32      CTL2    -0.220000       12.0110           0
     10932 MEMB     95       SAPE     H2X      HAL2     0.900000E-01   1.00800           0
     10933 MEMB     95       SAPE     H2Y      HAL2     0.900000E-01   1.00800           0
     10934 MEMB     95       SAPE     C23      CTL2    -0.180000       12.0110           0
     10935 MEMB     95       SAPE     H3R      HAL2     0.900000E-01   1.00800           0
     10936 MEMB     95       SAPE     H3S      HAL2     0.900000E-01   1.00800           0
     10937 MEMB     95       SAPE     C24      CTL2    -0.180000       12.0110           0
     10938 MEMB     95       SAPE     H4R      HAL2     0.900000E-01   1.00800           0
     10939 MEMB     95       SAPE     H4S      HAL2     0.900000E-01   1.00800           0
     10940 MEMB     95       SAPE     C25      CEL1    -0.150000       12.0110           0
     10941 MEMB     95       SAPE     H5R      HEL1     0.150000       1.00800           0
     10942 MEMB     95       SAPE     C26      CEL1    -0.150000       12.0110           0
     10943 MEMB     95       SAPE     H6R      HEL1     0.150000       1.00800           0
     10944 MEMB     95       SAPE     C27      CTL2    -0.180000       12.0110           0
     10945 MEMB     95       SAPE     H7R      HAL2     0.900000E-01   1.00800           0
     10946 MEMB     95       SAPE     H7S      HAL2     0.900000E-01   1.00800           0
     10947 MEMB     95       SAPE     C28      CEL1    -0.150000       12.0110           0
     10948 MEMB     95       SAPE     H8R      HEL1     0.150000       1.00800           0
     10949 MEMB     95       SAPE     C29      CEL1    -0.150000       12.0110           0
     10950 MEMB     95       SAPE     H9R      HEL1     0.150000       1.00800           0
     10951 MEMB     95       SAPE     C210     CTL2    -0.180000       12.0110           0
     10952 MEMB     95       SAPE     H10R     HAL2     0.900000E-01   1.00800           0
     10953 MEMB     95       SAPE     H10S     HAL2     0.900000E-01   1.00800           0
     10954 MEMB     95       SAPE     C211     CEL1    -0.150000       12.0110           0
     10955 MEMB     95       SAPE     H11R     HEL1     0.150000       1.00800           0
     10956 MEMB     95       SAPE     C212     CEL1    -0.150000       12.0110           0
     10957 MEMB     95       SAPE     H12R     HEL1     0.150000       1.00800           0
     10958 MEMB     95       SAPE     C213     CTL2    -0.180000       12.0110           0
     10959 MEMB     95       SAPE     H13R     HAL2     0.900000E-01   1.00800           0
     10960 MEMB     95       SAPE     H13S     HAL2     0.900000E-01   1.00800           0
     10961 MEMB     95       SAPE     C214     CEL1    -0.150000       12.0110           0
     10962 MEMB     95       SAPE     H14R     HEL1     0.150000       1.00800           0
     10963 MEMB     95       SAPE     C215     CEL1    -0.150000       12.0110           0
     10964 MEMB     95       SAPE     H15R     HEL1     0.150000       1.00800           0
     10965 MEMB     95       SAPE     C216     CTL2    -0.180000       12.0110           0
     10966 MEMB     95       SAPE     H16R     HAL2     0.900000E-01   1.00800           0
     10967 MEMB     95       SAPE     H16S     HAL2     0.900000E-01   1.00800           0
     10968 MEMB     95       SAPE     C217     CTL2    -0.180000       12.0110           0
     10969 MEMB     95       SAPE     H17R     HAL2     0.900000E-01   1.00800           0
     10970 MEMB     95       SAPE     H17S     HAL2     0.900000E-01   1.00800           0
     10971 MEMB     95       SAPE     C218     CTL2    -0.180000       12.0110           0
     10972 MEMB     95       SAPE     H18R     HAL2     0.900000E-01   1.00800           0
     10973 MEMB     95       SAPE     H18S     HAL2     0.900000E-01   1.00800           0
     10974 MEMB     95       SAPE     C219     CTL2    -0.180000       12.0110           0
     10975 MEMB     95       SAPE     H19R     HAL2     0.900000E-01   1.00800           0
     10976 MEMB     95       SAPE     H19S     HAL2     0.900000E-01   1.00800           0
     10977 MEMB     95       SAPE     C220     CTL3    -0.270000       12.0110           0
     10978 MEMB     95       SAPE     H20R     HAL3     0.900000E-01   1.00800           0
     10979 MEMB     95       SAPE     H20S     HAL3     0.900000E-01   1.00800           0
     10980 MEMB     95       SAPE     H20T     HAL3     0.900000E-01   1.00800           0
     10981 MEMB     95       SAPE     C33      CTL2    -0.180000       12.0110           0
     10982 MEMB     95       SAPE     H3X      HAL2     0.900000E-01   1.00800           0
     10983 MEMB     95       SAPE     H3Y      HAL2     0.900000E-01   1.00800           0
     10984 MEMB     95       SAPE     C34      CTL2    -0.180000       12.0110           0
     10985 MEMB     95       SAPE     H4X      HAL2     0.900000E-01   1.00800           0
     10986 MEMB     95       SAPE     H4Y      HAL2     0.900000E-01   1.00800           0
     10987 MEMB     95       SAPE     C35      CTL2    -0.180000       12.0110           0
     10988 MEMB     95       SAPE     H5X      HAL2     0.900000E-01   1.00800           0
     10989 MEMB     95       SAPE     H5Y      HAL2     0.900000E-01   1.00800           0
     10990 MEMB     95       SAPE     C36      CTL2    -0.180000       12.0110           0
     10991 MEMB     95       SAPE     H6X      HAL2     0.900000E-01   1.00800           0
     10992 MEMB     95       SAPE     H6Y      HAL2     0.900000E-01   1.00800           0
     10993 MEMB     95       SAPE     C37      CTL2    -0.180000       12.0110           0
     10994 MEMB     95       SAPE     H7X      HAL2     0.900000E-01   1.00800           0
     10995 MEMB     95       SAPE     H7Y      HAL2     0.900000E-01   1.00800           0
     10996 MEMB     95       SAPE     C38      CTL2    -0.180000       12.0110           0
     10997 MEMB     95       SAPE     H8X      HAL2     0.900000E-01   1.00800           0
     10998 MEMB     95       SAPE     H8Y      HAL2     0.900000E-01   1.00800           0
     10999 MEMB     95       SAPE     C39      CTL2    -0.180000       12.0110           0
     11000 MEMB     95       SAPE     H9X      HAL2     0.900000E-01   1.00800           0
     11001 MEMB     95       SAPE     H9Y      HAL2     0.900000E-01   1.00800           0
     11002 MEMB     95       SAPE     C310     CTL2    -0.180000       12.0110           0
     11003 MEMB     95       SAPE     H10X     HAL2     0.900000E-01   1.00800           0
     11004 MEMB     95       SAPE     H10Y     HAL2     0.900000E-01   1.00800           0
     11005 MEMB     95       SAPE     C311     CTL2    -0.180000       12.0110           0
     11006 MEMB     95       SAPE     H11X     HAL2     0.900000E-01   1.00800           0
     11007 MEMB     95       SAPE     H11Y     HAL2     0.900000E-01   1.00800           0
     11008 MEMB     95       SAPE     C312     CTL2    -0.180000       12.0110           0
     11009 MEMB     95       SAPE     H12X     HAL2     0.900000E-01   1.00800           0
     11010 MEMB     95       SAPE     H12Y     HAL2     0.900000E-01   1.00800           0
     11011 MEMB     95       SAPE     C313     CTL2    -0.180000       12.0110           0
     11012 MEMB     95       SAPE     H13X     HAL2     0.900000E-01   1.00800           0
     11013 MEMB     95       SAPE     H13Y     HAL2     0.900000E-01   1.00800           0
     11014 MEMB     95       SAPE     C314     CTL2    -0.180000       12.0110           0
     11015 MEMB     95       SAPE     H14X     HAL2     0.900000E-01   1.00800           0
     11016 MEMB     95       SAPE     H14Y     HAL2     0.900000E-01   1.00800           0
     11017 MEMB     95       SAPE     C315     CTL2    -0.180000       12.0110           0
     11018 MEMB     95       SAPE     H15X     HAL2     0.900000E-01   1.00800           0
     11019 MEMB     95       SAPE     H15Y     HAL2     0.900000E-01   1.00800           0
     11020 MEMB     95       SAPE     C316     CTL2    -0.180000       12.0110           0
     11021 MEMB     95       SAPE     H16X     HAL2     0.900000E-01   1.00800           0
     11022 MEMB     95       SAPE     H16Y     HAL2     0.900000E-01   1.00800           0
     11023 MEMB     95       SAPE     C317     CTL2    -0.180000       12.0110           0
     11024 MEMB     95       SAPE     H17X     HAL2     0.900000E-01   1.00800           0
     11025 MEMB     95       SAPE     H17Y     HAL2     0.900000E-01   1.00800           0
     11026 MEMB     95       SAPE     C318     CTL3    -0.270000       12.0110           0
     11027 MEMB     95       SAPE     H18X     HAL3     0.900000E-01   1.00800           0
     11028 MEMB     95       SAPE     H18Y     HAL3     0.900000E-01   1.00800           0
     11029 MEMB     95       SAPE     H18Z     HAL3     0.900000E-01   1.00800           0
     11030 MEMB     96       SOPE     N        NH3L    -0.300000       14.0070           0
     11031 MEMB     96       SOPE     HN1      HCL      0.330000       1.00800           0
     11032 MEMB     96       SOPE     HN2      HCL      0.330000       1.00800           0
     11033 MEMB     96       SOPE     HN3      HCL      0.330000       1.00800           0
     11034 MEMB     96       SOPE     C12      CTL2     0.130000       12.0110           0
     11035 MEMB     96       SOPE     H12A     HAL2     0.900000E-01   1.00800           0
     11036 MEMB     96       SOPE     H12B     HAL2     0.900000E-01   1.00800           0
     11037 MEMB     96       SOPE     C11      CTL2    -0.800000E-01   12.0110           0
     11038 MEMB     96       SOPE     H11A     HAL2     0.900000E-01   1.00800           0
     11039 MEMB     96       SOPE     H11B     HAL2     0.900000E-01   1.00800           0
     11040 MEMB     96       SOPE     P        PL        1.50000       30.9740           0
     11041 MEMB     96       SOPE     O13      O2L     -0.780000       15.9994           0
     11042 MEMB     96       SOPE     O14      O2L     -0.780000       15.9994           0
     11043 MEMB     96       SOPE     O12      OSLP    -0.570000       15.9994           0
     11044 MEMB     96       SOPE     O11      OSLP    -0.570000       15.9994           0
     11045 MEMB     96       SOPE     C1       CTL2    -0.800000E-01   12.0110           0
     11046 MEMB     96       SOPE     HA       HAL2     0.900000E-01   1.00800           0
     11047 MEMB     96       SOPE     HB       HAL2     0.900000E-01   1.00800           0
     11048 MEMB     96       SOPE     C2       CTL1     0.170000       12.0110           0
     11049 MEMB     96       SOPE     HS       HAL1     0.900000E-01   1.00800           0
     11050 MEMB     96       SOPE     O21      OSL     -0.490000       15.9994           0
     11051 MEMB     96       SOPE     C21      CL       0.900000       12.0110           0
     11052 MEMB     96       SOPE     O22      OBL     -0.630000       15.9994           0
     11053 MEMB     96       SOPE     C22      CTL2    -0.220000       12.0110           0
     11054 MEMB     96       SOPE     H2R      HAL2     0.900000E-01   1.00800           0
     11055 MEMB     96       SOPE     H2S      HAL2     0.900000E-01   1.00800           0
     11056 MEMB     96       SOPE     C3       CTL2     0.800000E-01   12.0110           0
     11057 MEMB     96       SOPE     HX       HAL2     0.900000E-01   1.00800           0
     11058 MEMB     96       SOPE     HY       HAL2     0.900000E-01   1.00800           0
     11059 MEMB     96       SOPE     O31      OSL     -0.490000       15.9994           0
     11060 MEMB     96       SOPE     C31      CL       0.900000       12.0110           0
     11061 MEMB     96       SOPE     O32      OBL     -0.630000       15.9994           0
     11062 MEMB     96       SOPE     C32      CTL2    -0.220000       12.0110           0
     11063 MEMB     96       SOPE     H2X      HAL2     0.900000E-01   1.00800           0
     11064 MEMB     96       SOPE     H2Y      HAL2     0.900000E-01   1.00800           0
     11065 MEMB     96       SOPE     C23      CTL2    -0.180000       12.0110           0
     11066 MEMB     96       SOPE     H3R      HAL2     0.900000E-01   1.00800           0
     11067 MEMB     96       SOPE     H3S      HAL2     0.900000E-01   1.00800           0
     11068 MEMB     96       SOPE     C24      CTL2    -0.180000       12.0110           0
     11069 MEMB     96       SOPE     H4R      HAL2     0.900000E-01   1.00800           0
     11070 MEMB     96       SOPE     H4S      HAL2     0.900000E-01   1.00800           0
     11071 MEMB     96       SOPE     C25      CTL2    -0.180000       12.0110           0
     11072 MEMB     96       SOPE     H5R      HAL2     0.900000E-01   1.00800           0
     11073 MEMB     96       SOPE     H5S      HAL2     0.900000E-01   1.00800           0
     11074 MEMB     96       SOPE     C26      CTL2    -0.180000       12.0110           0
     11075 MEMB     96       SOPE     H6R      HAL2     0.900000E-01   1.00800           0
     11076 MEMB     96       SOPE     H6S      HAL2     0.900000E-01   1.00800           0
     11077 MEMB     96       SOPE     C27      CTL2    -0.180000       12.0110           0
     11078 MEMB     96       SOPE     H7R      HAL2     0.900000E-01   1.00800           0
     11079 MEMB     96       SOPE     H7S      HAL2     0.900000E-01   1.00800           0
     11080 MEMB     96       SOPE     C28      CTL2    -0.180000       12.0110           0
     11081 MEMB     96       SOPE     H8R      HAL2     0.900000E-01   1.00800           0
     11082 MEMB     96       SOPE     H8S      HAL2     0.900000E-01   1.00800           0
     11083 MEMB     96       SOPE     C29      CEL1    -0.150000       12.0110           0
     11084 MEMB     96       SOPE     H91      HEL1     0.150000       1.00800           0
     11085 MEMB     96       SOPE     C210     CEL1    -0.150000       12.0110           0
     11086 MEMB     96       SOPE     H101     HEL1     0.150000       1.00800           0
     11087 MEMB     96       SOPE     C211     CTL2    -0.180000       12.0110           0
     11088 MEMB     96       SOPE     H11R     HAL2     0.900000E-01   1.00800           0
     11089 MEMB     96       SOPE     H11S     HAL2     0.900000E-01   1.00800           0
     11090 MEMB     96       SOPE     C212     CTL2    -0.180000       12.0110           0
     11091 MEMB     96       SOPE     H12R     HAL2     0.900000E-01   1.00800           0
     11092 MEMB     96       SOPE     H12S     HAL2     0.900000E-01   1.00800           0
     11093 MEMB     96       SOPE     C213     CTL2    -0.180000       12.0110           0
     11094 MEMB     96       SOPE     H13R     HAL2     0.900000E-01   1.00800           0
     11095 MEMB     96       SOPE     H13S     HAL2     0.900000E-01   1.00800           0
     11096 MEMB     96       SOPE     C214     CTL2    -0.180000       12.0110           0
     11097 MEMB     96       SOPE     H14R     HAL2     0.900000E-01   1.00800           0
     11098 MEMB     96       SOPE     H14S     HAL2     0.900000E-01   1.00800           0
     11099 MEMB     96       SOPE     C215     CTL2    -0.180000       12.0110           0
     11100 MEMB     96       SOPE     H15R     HAL2     0.900000E-01   1.00800           0
     11101 MEMB     96       SOPE     H15S     HAL2     0.900000E-01   1.00800           0
     11102 MEMB     96       SOPE     C216     CTL2    -0.180000       12.0110           0
     11103 MEMB     96       SOPE     H16R     HAL2     0.900000E-01   1.00800           0
     11104 MEMB     96       SOPE     H16S     HAL2     0.900000E-01   1.00800           0
     11105 MEMB     96       SOPE     C217     CTL2    -0.180000       12.0110           0
     11106 MEMB     96       SOPE     H17R     HAL2     0.900000E-01   1.00800           0
     11107 MEMB     96       SOPE     H17S     HAL2     0.900000E-01   1.00800           0
     11108 MEMB     96       SOPE     C218     CTL3    -0.270000       12.0110           0
     11109 MEMB     96       SOPE     H18R     HAL3     0.900000E-01   1.00800           0
     11110 MEMB     96       SOPE     H18S     HAL3     0.900000E-01   1.00800           0
     11111 MEMB     96       SOPE     H18T     HAL3     0.900000E-01   1.00800           0
     11112 MEMB     96       SOPE     C33      CTL2    -0.180000       12.0110           0
     11113 MEMB     96       SOPE     H3X      HAL2     0.900000E-01   1.00800           0
     11114 MEMB     96       SOPE     H3Y      HAL2     0.900000E-01   1.00800           0
     11115 MEMB     96       SOPE     C34      CTL2    -0.180000       12.0110           0
     11116 MEMB     96       SOPE     H4X      HAL2     0.900000E-01   1.00800           0
     11117 MEMB     96       SOPE     H4Y      HAL2     0.900000E-01   1.00800           0
     11118 MEMB     96       SOPE     C35      CTL2    -0.180000       12.0110           0
     11119 MEMB     96       SOPE     H5X      HAL2     0.900000E-01   1.00800           0
     11120 MEMB     96       SOPE     H5Y      HAL2     0.900000E-01   1.00800           0
     11121 MEMB     96       SOPE     C36      CTL2    -0.180000       12.0110           0
     11122 MEMB     96       SOPE     H6X      HAL2     0.900000E-01   1.00800           0
     11123 MEMB     96       SOPE     H6Y      HAL2     0.900000E-01   1.00800           0
     11124 MEMB     96       SOPE     C37      CTL2    -0.180000       12.0110           0
     11125 MEMB     96       SOPE     H7X      HAL2     0.900000E-01   1.00800           0
     11126 MEMB     96       SOPE     H7Y      HAL2     0.900000E-01   1.00800           0
     11127 MEMB     96       SOPE     C38      CTL2    -0.180000       12.0110           0
     11128 MEMB     96       SOPE     H8X      HAL2     0.900000E-01   1.00800           0
     11129 MEMB     96       SOPE     H8Y      HAL2     0.900000E-01   1.00800           0
     11130 MEMB     96       SOPE     C39      CTL2    -0.180000       12.0110           0
     11131 MEMB     96       SOPE     H9X      HAL2     0.900000E-01   1.00800           0
     11132 MEMB     96       SOPE     H9Y      HAL2     0.900000E-01   1.00800           0
     11133 MEMB     96       SOPE     C310     CTL2    -0.180000       12.0110           0
     11134 MEMB     96       SOPE     H10X     HAL2     0.900000E-01   1.00800           0
     11135 MEMB     96       SOPE     H10Y     HAL2     0.900000E-01   1.00800           0
     11136 MEMB     96       SOPE     C311     CTL2    -0.180000       12.0110           0
     11137 MEMB     96       SOPE     H11X     HAL2     0.900000E-01   1.00800           0
     11138 MEMB     96       SOPE     H11Y     HAL2     0.900000E-01   1.00800           0
     11139 MEMB     96       SOPE     C312     CTL2    -0.180000       12.0110           0
     11140 MEMB     96       SOPE     H12X     HAL2     0.900000E-01   1.00800           0
     11141 MEMB     96       SOPE     H12Y     HAL2     0.900000E-01   1.00800           0
     11142 MEMB     96       SOPE     C313     CTL2    -0.180000       12.0110           0
     11143 MEMB     96       SOPE     H13X     HAL2     0.900000E-01   1.00800           0
     11144 MEMB     96       SOPE     H13Y     HAL2     0.900000E-01   1.00800           0
     11145 MEMB     96       SOPE     C314     CTL2    -0.180000       12.0110           0
     11146 MEMB     96       SOPE     H14X     HAL2     0.900000E-01   1.00800           0
     11147 MEMB     96       SOPE     H14Y     HAL2     0.900000E-01   1.00800           0
     11148 MEMB     96       SOPE     C315     CTL2    -0.180000       12.0110           0
     11149 MEMB     96       SOPE     H15X     HAL2     0.900000E-01   1.00800           0
     11150 MEMB     96       SOPE     H15Y     HAL2     0.900000E-01   1.00800           0
     11151 MEMB     96       SOPE     C316     CTL2    -0.180000       12.0110           0
     11152 MEMB     96       SOPE     H16X     HAL2     0.900000E-01   1.00800           0
     11153 MEMB     96       SOPE     H16Y     HAL2     0.900000E-01   1.00800           0
     11154 MEMB     96       SOPE     C317     CTL2    -0.180000       12.0110           0
     11155 MEMB     96       SOPE     H17X     HAL2     0.900000E-01   1.00800           0
     11156 MEMB     96       SOPE     H17Y     HAL2     0.900000E-01   1.00800           0
     11157 MEMB     96       SOPE     C318     CTL3    -0.270000       12.0110           0
     11158 MEMB     96       SOPE     H18X     HAL3     0.900000E-01   1.00800           0
     11159 MEMB     96       SOPE     H18Y     HAL3     0.900000E-01   1.00800           0
     11160 MEMB     96       SOPE     H18Z     HAL3     0.900000E-01   1.00800           0
     11161 MEMB     97       CHL1     C3       CRL1     0.140000       12.0110           0
     11162 MEMB     97       CHL1     H3       HGA1     0.900000E-01   1.00800           0
     11163 MEMB     97       CHL1     O3       OHL     -0.660000       15.9994           0
     11164 MEMB     97       CHL1     H3'      HOL      0.430000       1.00800           0
     11165 MEMB     97       CHL1     C4       CRL2    -0.180000       12.0110           0
     11166 MEMB     97       CHL1     H4A      HGA2     0.900000E-01   1.00800           0
     11167 MEMB     97       CHL1     H4B      HGA2     0.900000E-01   1.00800           0
     11168 MEMB     97       CHL1     C5       CEL1      0.00000       12.0110           0
     11169 MEMB     97       CHL1     C6       CEL1    -0.150000       12.0110           0
     11170 MEMB     97       CHL1     H6       HEL1     0.150000       1.00800           0
     11171 MEMB     97       CHL1     C7       CRL2    -0.180000       12.0110           0
     11172 MEMB     97       CHL1     H7A      HGA2     0.900000E-01   1.00800           0
     11173 MEMB     97       CHL1     H7B      HGA2     0.900000E-01   1.00800           0
     11174 MEMB     97       CHL1     C8       CRL1    -0.900000E-01   12.0110           0
     11175 MEMB     97       CHL1     H8       HGA1     0.900000E-01   1.00800           0
     11176 MEMB     97       CHL1     C14      CRL1    -0.900000E-01   12.0110           0
     11177 MEMB     97       CHL1     H14      HGA1     0.900000E-01   1.00800           0
     11178 MEMB     97       CHL1     C15      CRL2    -0.180000       12.0110           0
     11179 MEMB     97       CHL1     H15A     HGA2     0.900000E-01   1.00800           0
     11180 MEMB     97       CHL1     H15B     HGA2     0.900000E-01   1.00800           0
     11181 MEMB     97       CHL1     C16      CRL2    -0.180000       12.0110           0
     11182 MEMB     97       CHL1     H16A     HGA2     0.900000E-01   1.00800           0
     11183 MEMB     97       CHL1     H16B     HGA2     0.900000E-01   1.00800           0
     11184 MEMB     97       CHL1     C17      CRL1    -0.900000E-01   12.0110           0
     11185 MEMB     97       CHL1     H17      HGA1     0.900000E-01   1.00800           0
     11186 MEMB     97       CHL1     C13      CRL1      0.00000       12.0110           0
     11187 MEMB     97       CHL1     C18      CTL3    -0.270000       12.0110           0
     11188 MEMB     97       CHL1     H18A     HAL3     0.900000E-01   1.00800           0
     11189 MEMB     97       CHL1     H18B     HAL3     0.900000E-01   1.00800           0
     11190 MEMB     97       CHL1     H18C     HAL3     0.900000E-01   1.00800           0
     11191 MEMB     97       CHL1     C12      CRL2    -0.180000       12.0110           0
     11192 MEMB     97       CHL1     H12A     HGA2     0.900000E-01   1.00800           0
     11193 MEMB     97       CHL1     H12B     HGA2     0.900000E-01   1.00800           0
     11194 MEMB     97       CHL1     C11      CRL2    -0.180000       12.0110           0
     11195 MEMB     97       CHL1     H11A     HGA2     0.900000E-01   1.00800           0
     11196 MEMB     97       CHL1     H11B     HGA2     0.900000E-01   1.00800           0
     11197 MEMB     97       CHL1     C9       CRL1    -0.900000E-01   12.0110           0
     11198 MEMB     97       CHL1     H9       HGA1     0.900000E-01   1.00800           0
     11199 MEMB     97       CHL1     C10      CRL1      0.00000       12.0110           0
     11200 MEMB     97       CHL1     C19      CTL3    -0.270000       12.0110           0
     11201 MEMB     97       CHL1     H19A     HAL3     0.900000E-01   1.00800           0
     11202 MEMB     97       CHL1     H19B     HAL3     0.900000E-01   1.00800           0
     11203 MEMB     97       CHL1     H19C     HAL3     0.900000E-01   1.00800           0
     11204 MEMB     97       CHL1     C1       CRL2    -0.180000       12.0110           0
     11205 MEMB     97       CHL1     H1A      HGA2     0.900000E-01   1.00800           0
     11206 MEMB     97       CHL1     H1B      HGA2     0.900000E-01   1.00800           0
     11207 MEMB     97       CHL1     C2       CRL2    -0.180000       12.0110           0
     11208 MEMB     97       CHL1     H2A      HGA2     0.900000E-01   1.00800           0
     11209 MEMB     97       CHL1     H2B      HGA2     0.900000E-01   1.00800           0
     11210 MEMB     97       CHL1     C20      CTL1    -0.900000E-01   12.0110           0
     11211 MEMB     97       CHL1     H20      HAL1     0.900000E-01   1.00800           0
     11212 MEMB     97       CHL1     C21      CTL3    -0.270000       12.0110           0
     11213 MEMB     97       CHL1     H21A     HAL3     0.900000E-01   1.00800           0
     11214 MEMB     97       CHL1     H21B     HAL3     0.900000E-01   1.00800           0
     11215 MEMB     97       CHL1     H21C     HAL3     0.900000E-01   1.00800           0
     11216 MEMB     97       CHL1     C22      CTL2    -0.180000       12.0110           0
     11217 MEMB     97       CHL1     H22A     HAL2     0.900000E-01   1.00800           0
     11218 MEMB     97       CHL1     H22B     HAL2     0.900000E-01   1.00800           0
     11219 MEMB     97       CHL1     C23      CTL2    -0.180000       12.0110           0
     11220 MEMB     97       CHL1     H23A     HAL2     0.900000E-01   1.00800           0
     11221 MEMB     97       CHL1     H23B     HAL2     0.900000E-01   1.00800           0
     11222 MEMB     97       CHL1     C24      CTL2    -0.180000       12.0110           0
     11223 MEMB     97       CHL1     H24A     HAL2     0.900000E-01   1.00800           0
     11224 MEMB     97       CHL1     H24B     HAL2     0.900000E-01   1.00800           0
     11225 MEMB     97       CHL1     C25      CTL1    -0.900000E-01   12.0110           0
     11226 MEMB     97       CHL1     H25      HAL1     0.900000E-01   1.00800           0
     11227 MEMB     97       CHL1     C26      CTL3    -0.270000       12.0110           0
     11228 MEMB     97       CHL1     H26A     HAL3     0.900000E-01   1.00800           0
     11229 MEMB     97       CHL1     H26B     HAL3     0.900000E-01   1.00800           0
     11230 MEMB     97       CHL1     H26C     HAL3     0.900000E-01   1.00800           0
     11231 MEMB     97       CHL1     C27      CTL3    -0.270000       12.0110           0
     11232 MEMB     97       CHL1     H27A     HAL3     0.900000E-01   1.00800           0
     11233 MEMB     97       CHL1     H27B     HAL3     0.900000E-01   1.00800           0
     11234 MEMB     97       CHL1     H27C     HAL3     0.900000E-01   1.00800           0
     11235 MEMB     98       CHL1     C3       CRL1     0.140000       12.0110           0
     11236 MEMB     98       CHL1     H3       HGA1     0.900000E-01   1.00800           0
     11237 MEMB     98       CHL1     O3       OHL     -0.660000       15.9994           0
     11238 MEMB     98       CHL1     H3'      HOL      0.430000       1.00800           0
     11239 MEMB     98       CHL1     C4       CRL2    -0.180000       12.0110           0
     11240 MEMB     98       CHL1     H4A      HGA2     0.900000E-01   1.00800           0
     11241 MEMB     98       CHL1     H4B      HGA2     0.900000E-01   1.00800           0
     11242 MEMB     98       CHL1     C5       CEL1      0.00000       12.0110           0
     11243 MEMB     98       CHL1     C6       CEL1    -0.150000       12.0110           0
     11244 MEMB     98       CHL1     H6       HEL1     0.150000       1.00800           0
     11245 MEMB     98       CHL1     C7       CRL2    -0.180000       12.0110           0
     11246 MEMB     98       CHL1     H7A      HGA2     0.900000E-01   1.00800           0
     11247 MEMB     98       CHL1     H7B      HGA2     0.900000E-01   1.00800           0
     11248 MEMB     98       CHL1     C8       CRL1    -0.900000E-01   12.0110           0
     11249 MEMB     98       CHL1     H8       HGA1     0.900000E-01   1.00800           0
     11250 MEMB     98       CHL1     C14      CRL1    -0.900000E-01   12.0110           0
     11251 MEMB     98       CHL1     H14      HGA1     0.900000E-01   1.00800           0
     11252 MEMB     98       CHL1     C15      CRL2    -0.180000       12.0110           0
     11253 MEMB     98       CHL1     H15A     HGA2     0.900000E-01   1.00800           0
     11254 MEMB     98       CHL1     H15B     HGA2     0.900000E-01   1.00800           0
     11255 MEMB     98       CHL1     C16      CRL2    -0.180000       12.0110           0
     11256 MEMB     98       CHL1     H16A     HGA2     0.900000E-01   1.00800           0
     11257 MEMB     98       CHL1     H16B     HGA2     0.900000E-01   1.00800           0
     11258 MEMB     98       CHL1     C17      CRL1    -0.900000E-01   12.0110           0
     11259 MEMB     98       CHL1     H17      HGA1     0.900000E-01   1.00800           0
     11260 MEMB     98       CHL1     C13      CRL1      0.00000       12.0110           0
     11261 MEMB     98       CHL1     C18      CTL3    -0.270000       12.0110           0
     11262 MEMB     98       CHL1     H18A     HAL3     0.900000E-01   1.00800           0
     11263 MEMB     98       CHL1     H18B     HAL3     0.900000E-01   1.00800           0
     11264 MEMB     98       CHL1     H18C     HAL3     0.900000E-01   1.00800           0
     11265 MEMB     98       CHL1     C12      CRL2    -0.180000       12.0110           0
     11266 MEMB     98       CHL1     H12A     HGA2     0.900000E-01   1.00800           0
     11267 MEMB     98       CHL1     H12B     HGA2     0.900000E-01   1.00800           0
     11268 MEMB     98       CHL1     C11      CRL2    -0.180000       12.0110           0
     11269 MEMB     98       CHL1     H11A     HGA2     0.900000E-01   1.00800           0
     11270 MEMB     98       CHL1     H11B     HGA2     0.900000E-01   1.00800           0
     11271 MEMB     98       CHL1     C9       CRL1    -0.900000E-01   12.0110           0
     11272 MEMB     98       CHL1     H9       HGA1     0.900000E-01   1.00800           0
     11273 MEMB     98       CHL1     C10      CRL1      0.00000       12.0110           0
     11274 MEMB     98       CHL1     C19      CTL3    -0.270000       12.0110           0
     11275 MEMB     98       CHL1     H19A     HAL3     0.900000E-01   1.00800           0
     11276 MEMB     98       CHL1     H19B     HAL3     0.900000E-01   1.00800           0
     11277 MEMB     98       CHL1     H19C     HAL3     0.900000E-01   1.00800           0
     11278 MEMB     98       CHL1     C1       CRL2    -0.180000       12.0110           0
     11279 MEMB     98       CHL1     H1A      HGA2     0.900000E-01   1.00800           0
     11280 MEMB     98       CHL1     H1B      HGA2     0.900000E-01   1.00800           0
     11281 MEMB     98       CHL1     C2       CRL2    -0.180000       12.0110           0
     11282 MEMB     98       CHL1     H2A      HGA2     0.900000E-01   1.00800           0
     11283 MEMB     98       CHL1     H2B      HGA2     0.900000E-01   1.00800           0
     11284 MEMB     98       CHL1     C20      CTL1    -0.900000E-01   12.0110           0
     11285 MEMB     98       CHL1     H20      HAL1     0.900000E-01   1.00800           0
     11286 MEMB     98       CHL1     C21      CTL3    -0.270000       12.0110           0
     11287 MEMB     98       CHL1     H21A     HAL3     0.900000E-01   1.00800           0
     11288 MEMB     98       CHL1     H21B     HAL3     0.900000E-01   1.00800           0
     11289 MEMB     98       CHL1     H21C     HAL3     0.900000E-01   1.00800           0
     11290 MEMB     98       CHL1     C22      CTL2    -0.180000       12.0110           0
     11291 MEMB     98       CHL1     H22A     HAL2     0.900000E-01   1.00800           0
     11292 MEMB     98       CHL1     H22B     HAL2     0.900000E-01   1.00800           0
     11293 MEMB     98       CHL1     C23      CTL2    -0.180000       12.0110           0
     11294 MEMB     98       CHL1     H23A     HAL2     0.900000E-01   1.00800           0
     11295 MEMB     98       CHL1     H23B     HAL2     0.900000E-01   1.00800           0
     11296 MEMB     98       CHL1     C24      CTL2    -0.180000       12.0110           0
     11297 MEMB     98       CHL1     H24A     HAL2     0.900000E-01   1.00800           0
     11298 MEMB     98       CHL1     H24B     HAL2     0.900000E-01   1.00800           0
     11299 MEMB     98       CHL1     C25      CTL1    -0.900000E-01   12.0110           0
     11300 MEMB     98       CHL1     H25      HAL1     0.900000E-01   1.00800           0
     11301 MEMB     98       CHL1     C26      CTL3    -0.270000       12.0110           0
     11302 MEMB     98       CHL1     H26A     HAL3     0.900000E-01   1.00800           0
     11303 MEMB     98       CHL1     H26B     HAL3     0.900000E-01   1.00800           0
     11304 MEMB     98       CHL1     H26C     HAL3     0.900000E-01   1.00800           0
     11305 MEMB     98       CHL1     C27      CTL3    -0.270000       12.0110           0
     11306 MEMB     98       CHL1     H27A     HAL3     0.900000E-01   1.00800           0
     11307 MEMB     98       CHL1     H27B     HAL3     0.900000E-01   1.00800           0
     11308 MEMB     98       CHL1     H27C     HAL3     0.900000E-01   1.00800           0
     11309 MEMB     99       OSM      N        NTL     -0.600000       14.0070           0
     11310 MEMB     99       OSM      C15      CTL5    -0.350000       12.0110           0
     11311 MEMB     99       OSM      H15A     HL       0.250000       1.00800           0
     11312 MEMB     99       OSM      H15B     HL       0.250000       1.00800           0
     11313 MEMB     99       OSM      H15C     HL       0.250000       1.00800           0
     11314 MEMB     99       OSM      C14      CTL5    -0.350000       12.0110           0
     11315 MEMB     99       OSM      H14A     HL       0.250000       1.00800           0
     11316 MEMB     99       OSM      H14B     HL       0.250000       1.00800           0
     11317 MEMB     99       OSM      H14C     HL       0.250000       1.00800           0
     11318 MEMB     99       OSM      C13      CTL5    -0.350000       12.0110           0
     11319 MEMB     99       OSM      H13A     HL       0.250000       1.00800           0
     11320 MEMB     99       OSM      H13B     HL       0.250000       1.00800           0
     11321 MEMB     99       OSM      H13C     HL       0.250000       1.00800           0
     11322 MEMB     99       OSM      C12      CTL2    -0.100000       12.0110           0
     11323 MEMB     99       OSM      H12A     HL       0.250000       1.00800           0
     11324 MEMB     99       OSM      H12B     HL       0.250000       1.00800           0
     11325 MEMB     99       OSM      C11      CTL2    -0.800000E-01   12.0110           0
     11326 MEMB     99       OSM      H11A     HAL2     0.900000E-01   1.00800           0
     11327 MEMB     99       OSM      H11B     HAL2     0.900000E-01   1.00800           0
     11328 MEMB     99       OSM      P        PL        1.50000       30.9740           0
     11329 MEMB     99       OSM      O13      O2L     -0.780000       15.9994           0
     11330 MEMB     99       OSM      O14      O2L     -0.780000       15.9994           0
     11331 MEMB     99       OSM      O11      OSLP    -0.570000       15.9994           0
     11332 MEMB     99       OSM      O12      OSLP    -0.570000       15.9994           0
     11333 MEMB     99       OSM      C1S      CTL2    -0.800000E-01   12.0110           0
     11334 MEMB     99       OSM      H1S      HAL2     0.900000E-01   1.00800           0
     11335 MEMB     99       OSM      H1T      HAL2     0.900000E-01   1.00800           0
     11336 MEMB     99       OSM      NF       NHL     -0.700000       14.0070           0
     11337 MEMB     99       OSM      HNF      H        0.350000       1.00800           0
     11338 MEMB     99       OSM      C2S      CTL1     0.300000       12.0110           0
     11339 MEMB     99       OSM      H2S      HAL1     0.500000E-01   1.00800           0
     11340 MEMB     99       OSM      C3S      CTO1     0.500000       12.0110           0
     11341 MEMB     99       OSM      H3S      HAL1    -0.110000       1.00800           0
     11342 MEMB     99       OSM      O3       OHL     -0.690000       15.9994           0
     11343 MEMB     99       OSM      HO3      HOL      0.300000       1.00800           0
     11344 MEMB     99       OSM      C4S      CEL3    -0.150000       12.0110           0
     11345 MEMB     99       OSM      H4S      HEL1     0.150000       1.00800           0
     11346 MEMB     99       OSM      C5S      CEL3    -0.150000       12.0110           0
     11347 MEMB     99       OSM      H5S      HEL1     0.150000       1.00800           0
     11348 MEMB     99       OSM      C6S      CTL2    -0.180000       12.0110           0
     11349 MEMB     99       OSM      H6S      HAL2     0.900000E-01   1.00800           0
     11350 MEMB     99       OSM      H6T      HAL2     0.900000E-01   1.00800           0
     11351 MEMB     99       OSM      C7S      CTL2    -0.180000       12.0110           0
     11352 MEMB     99       OSM      H7S      HAL2     0.900000E-01   1.00800           0
     11353 MEMB     99       OSM      H7T      HAL2     0.900000E-01   1.00800           0
     11354 MEMB     99       OSM      C8S      CTL2    -0.180000       12.0110           0
     11355 MEMB     99       OSM      H8S      HAL2     0.900000E-01   1.00800           0
     11356 MEMB     99       OSM      H8T      HAL2     0.900000E-01   1.00800           0
     11357 MEMB     99       OSM      C9S      CTL2    -0.180000       12.0110           0
     11358 MEMB     99       OSM      H9S      HAL2     0.900000E-01   1.00800           0
     11359 MEMB     99       OSM      H9T      HAL2     0.900000E-01   1.00800           0
     11360 MEMB     99       OSM      C10S     CTL2    -0.180000       12.0110           0
     11361 MEMB     99       OSM      H10S     HAL2     0.900000E-01   1.00800           0
     11362 MEMB     99       OSM      H10T     HAL2     0.900000E-01   1.00800           0
     11363 MEMB     99       OSM      C11S     CTL2    -0.180000       12.0110           0
     11364 MEMB     99       OSM      H11S     HAL2     0.900000E-01   1.00800           0
     11365 MEMB     99       OSM      H11T     HAL2     0.900000E-01   1.00800           0
     11366 MEMB     99       OSM      C12S     CTL2    -0.180000       12.0110           0
     11367 MEMB     99       OSM      H12S     HAL2     0.900000E-01   1.00800           0
     11368 MEMB     99       OSM      H12T     HAL2     0.900000E-01   1.00800           0
     11369 MEMB     99       OSM      C13S     CTL2    -0.180000       12.0110           0
     11370 MEMB     99       OSM      H13S     HAL2     0.900000E-01   1.00800           0
     11371 MEMB     99       OSM      H13T     HAL2     0.900000E-01   1.00800           0
     11372 MEMB     99       OSM      C14S     CTL2    -0.180000       12.0110           0
     11373 MEMB     99       OSM      H14S     HAL2     0.900000E-01   1.00800           0
     11374 MEMB     99       OSM      H14T     HAL2     0.900000E-01   1.00800           0
     11375 MEMB     99       OSM      C15S     CTL2    -0.180000       12.0110           0
     11376 MEMB     99       OSM      H15S     HAL2     0.900000E-01   1.00800           0
     11377 MEMB     99       OSM      H15T     HAL2     0.900000E-01   1.00800           0
     11378 MEMB     99       OSM      C16S     CTL2    -0.180000       12.0110           0
     11379 MEMB     99       OSM      H16S     HAL2     0.900000E-01   1.00800           0
     11380 MEMB     99       OSM      H16T     HAL2     0.900000E-01   1.00800           0
     11381 MEMB     99       OSM      C17S     CTL2    -0.180000       12.0110           0
     11382 MEMB     99       OSM      H17S     HAL2     0.900000E-01   1.00800           0
     11383 MEMB     99       OSM      H17T     HAL2     0.900000E-01   1.00800           0
     11384 MEMB     99       OSM      C18S     CTL3    -0.270000       12.0110           0
     11385 MEMB     99       OSM      H18S     HAL3     0.900000E-01   1.00800           0
     11386 MEMB     99       OSM      H18T     HAL3     0.900000E-01   1.00800           0
     11387 MEMB     99       OSM      H18U     HAL3     0.900000E-01   1.00800           0
     11388 MEMB     99       OSM      C1F      C        0.550000       12.0110           0
     11389 MEMB     99       OSM      OF       O       -0.600000       15.9994           0
     11390 MEMB     99       OSM      C2F      CTL2    -0.700000E-01   12.0110           0
     11391 MEMB     99       OSM      H2F      HAL2     0.600000E-01   1.00800           0
     11392 MEMB     99       OSM      H2G      HAL2     0.600000E-01   1.00800           0
     11393 MEMB     99       OSM      C3F      CTL2    -0.180000       12.0110           0
     11394 MEMB     99       OSM      H3F      HAL2     0.900000E-01   1.00800           0
     11395 MEMB     99       OSM      H3G      HAL2     0.900000E-01   1.00800           0
     11396 MEMB     99       OSM      C4F      CTL2    -0.180000       12.0110           0
     11397 MEMB     99       OSM      H4F      HAL2     0.900000E-01   1.00800           0
     11398 MEMB     99       OSM      H4G      HAL2     0.900000E-01   1.00800           0
     11399 MEMB     99       OSM      C5F      CTL2    -0.180000       12.0110           0
     11400 MEMB     99       OSM      H5F      HAL2     0.900000E-01   1.00800           0
     11401 MEMB     99       OSM      H5G      HAL2     0.900000E-01   1.00800           0
     11402 MEMB     99       OSM      C6F      CTL2    -0.180000       12.0110           0
     11403 MEMB     99       OSM      H6F      HAL2     0.900000E-01   1.00800           0
     11404 MEMB     99       OSM      H6G      HAL2     0.900000E-01   1.00800           0
     11405 MEMB     99       OSM      C7F      CTL2    -0.180000       12.0110           0
     11406 MEMB     99       OSM      H7F      HAL2     0.900000E-01   1.00800           0
     11407 MEMB     99       OSM      H7G      HAL2     0.900000E-01   1.00800           0
     11408 MEMB     99       OSM      C8F      CTL2    -0.180000       12.0110           0
     11409 MEMB     99       OSM      H8F      HAL2     0.900000E-01   1.00800           0
     11410 MEMB     99       OSM      H8G      HAL2     0.900000E-01   1.00800           0
     11411 MEMB     99       OSM      C9F      CEL1    -0.150000       12.0110           0
     11412 MEMB     99       OSM      H9F      HEL1     0.150000       1.00800           0
     11413 MEMB     99       OSM      C10F     CEL1    -0.150000       12.0110           0
     11414 MEMB     99       OSM      H10F     HEL1     0.150000       1.00800           0
     11415 MEMB     99       OSM      C11F     CTL2    -0.180000       12.0110           0
     11416 MEMB     99       OSM      H11F     HAL2     0.900000E-01   1.00800           0
     11417 MEMB     99       OSM      H11G     HAL2     0.900000E-01   1.00800           0
     11418 MEMB     99       OSM      C12F     CTL2    -0.180000       12.0110           0
     11419 MEMB     99       OSM      H12F     HAL2     0.900000E-01   1.00800           0
     11420 MEMB     99       OSM      H12G     HAL2     0.900000E-01   1.00800           0
     11421 MEMB     99       OSM      C13F     CTL2    -0.180000       12.0110           0
     11422 MEMB     99       OSM      H13F     HAL2     0.900000E-01   1.00800           0
     11423 MEMB     99       OSM      H13G     HAL2     0.900000E-01   1.00800           0
     11424 MEMB     99       OSM      C14F     CTL2    -0.180000       12.0110           0
     11425 MEMB     99       OSM      H14F     HAL2     0.900000E-01   1.00800           0
     11426 MEMB     99       OSM      H14G     HAL2     0.900000E-01   1.00800           0
     11427 MEMB     99       OSM      C15F     CTL2    -0.180000       12.0110           0
     11428 MEMB     99       OSM      H15F     HAL2     0.900000E-01   1.00800           0
     11429 MEMB     99       OSM      H15G     HAL2     0.900000E-01   1.00800           0
     11430 MEMB     99       OSM      C16F     CTL2    -0.180000       12.0110           0
     11431 MEMB     99       OSM      H16F     HAL2     0.900000E-01   1.00800           0
     11432 MEMB     99       OSM      H16G     HAL2     0.900000E-01   1.00800           0
     11433 MEMB     99       OSM      C17F     CTL2    -0.180000       12.0110           0
     11434 MEMB     99       OSM      H17F     HAL2     0.900000E-01   1.00800           0
     11435 MEMB     99       OSM      H17G     HAL2     0.900000E-01   1.00800           0
     11436 MEMB     99       OSM      C18F     CTL3    -0.270000       12.0110           0
     11437 MEMB     99       OSM      H18F     HAL3     0.900000E-01   1.00800           0
     11438 MEMB     99       OSM      H18G     HAL3     0.900000E-01   1.00800           0
     11439 MEMB     99       OSM      H18H     HAL3     0.900000E-01   1.00800           0
     11440 MEMB     100      SLPC     N        NTL     -0.600000       14.0070           0
     11441 MEMB     100      SLPC     C13      CTL5    -0.350000       12.0110           0
     11442 MEMB     100      SLPC     H13A     HL       0.250000       1.00800           0
     11443 MEMB     100      SLPC     H13B     HL       0.250000       1.00800           0
     11444 MEMB     100      SLPC     H13C     HL       0.250000       1.00800           0
     11445 MEMB     100      SLPC     C14      CTL5    -0.350000       12.0110           0
     11446 MEMB     100      SLPC     H14A     HL       0.250000       1.00800           0
     11447 MEMB     100      SLPC     H14B     HL       0.250000       1.00800           0
     11448 MEMB     100      SLPC     H14C     HL       0.250000       1.00800           0
     11449 MEMB     100      SLPC     C15      CTL5    -0.350000       12.0110           0
     11450 MEMB     100      SLPC     H15A     HL       0.250000       1.00800           0
     11451 MEMB     100      SLPC     H15B     HL       0.250000       1.00800           0
     11452 MEMB     100      SLPC     H15C     HL       0.250000       1.00800           0
     11453 MEMB     100      SLPC     C12      CTL2    -0.100000       12.0110           0
     11454 MEMB     100      SLPC     H12A     HL       0.250000       1.00800           0
     11455 MEMB     100      SLPC     H12B     HL       0.250000       1.00800           0
     11456 MEMB     100      SLPC     C11      CTL2    -0.800000E-01   12.0110           0
     11457 MEMB     100      SLPC     H11A     HAL2     0.900000E-01   1.00800           0
     11458 MEMB     100      SLPC     H11B     HAL2     0.900000E-01   1.00800           0
     11459 MEMB     100      SLPC     P        PL        1.50000       30.9740           0
     11460 MEMB     100      SLPC     O13      O2L     -0.780000       15.9994           0
     11461 MEMB     100      SLPC     O14      O2L     -0.780000       15.9994           0
     11462 MEMB     100      SLPC     O12      OSLP    -0.570000       15.9994           0
     11463 MEMB     100      SLPC     O11      OSLP    -0.570000       15.9994           0
     11464 MEMB     100      SLPC     C1       CTL2    -0.800000E-01   12.0110           0
     11465 MEMB     100      SLPC     HA       HAL2     0.900000E-01   1.00800           0
     11466 MEMB     100      SLPC     HB       HAL2     0.900000E-01   1.00800           0
     11467 MEMB     100      SLPC     C2       CTL1     0.170000       12.0110           0
     11468 MEMB     100      SLPC     HS       HAL1     0.900000E-01   1.00800           0
     11469 MEMB     100      SLPC     O21      OSL     -0.490000       15.9994           0
     11470 MEMB     100      SLPC     C21      CL       0.900000       12.0110           0
     11471 MEMB     100      SLPC     O22      OBL     -0.630000       15.9994           0
     11472 MEMB     100      SLPC     C22      CTL2    -0.220000       12.0110           0
     11473 MEMB     100      SLPC     H2R      HAL2     0.900000E-01   1.00800           0
     11474 MEMB     100      SLPC     H2S      HAL2     0.900000E-01   1.00800           0
     11475 MEMB     100      SLPC     C3       CTL2     0.800000E-01   12.0110           0
     11476 MEMB     100      SLPC     HX       HAL2     0.900000E-01   1.00800           0
     11477 MEMB     100      SLPC     HY       HAL2     0.900000E-01   1.00800           0
     11478 MEMB     100      SLPC     O31      OSL     -0.490000       15.9994           0
     11479 MEMB     100      SLPC     C31      CL       0.900000       12.0110           0
     11480 MEMB     100      SLPC     O32      OBL     -0.630000       15.9994           0
     11481 MEMB     100      SLPC     C32      CTL2    -0.220000       12.0110           0
     11482 MEMB     100      SLPC     H2X      HAL2     0.900000E-01   1.00800           0
     11483 MEMB     100      SLPC     H2Y      HAL2     0.900000E-01   1.00800           0
     11484 MEMB     100      SLPC     C23      CTL2    -0.180000       12.0110           0
     11485 MEMB     100      SLPC     H3R      HAL2     0.900000E-01   1.00800           0
     11486 MEMB     100      SLPC     H3S      HAL2     0.900000E-01   1.00800           0
     11487 MEMB     100      SLPC     C24      CTL2    -0.180000       12.0110           0
     11488 MEMB     100      SLPC     H4R      HAL2     0.900000E-01   1.00800           0
     11489 MEMB     100      SLPC     H4S      HAL2     0.900000E-01   1.00800           0
     11490 MEMB     100      SLPC     C25      CTL2    -0.180000       12.0110           0
     11491 MEMB     100      SLPC     H5R      HAL2     0.900000E-01   1.00800           0
     11492 MEMB     100      SLPC     H5S      HAL2     0.900000E-01   1.00800           0
     11493 MEMB     100      SLPC     C26      CTL2    -0.180000       12.0110           0
     11494 MEMB     100      SLPC     H6R      HAL2     0.900000E-01   1.00800           0
     11495 MEMB     100      SLPC     H6S      HAL2     0.900000E-01   1.00800           0
     11496 MEMB     100      SLPC     C27      CTL2    -0.180000       12.0110           0
     11497 MEMB     100      SLPC     H7R      HAL2     0.900000E-01   1.00800           0
     11498 MEMB     100      SLPC     H7S      HAL2     0.900000E-01   1.00800           0
     11499 MEMB     100      SLPC     C28      CTL2    -0.180000       12.0110           0
     11500 MEMB     100      SLPC     H8R      HAL2     0.900000E-01   1.00800           0
     11501 MEMB     100      SLPC     H8S      HAL2     0.900000E-01   1.00800           0
     11502 MEMB     100      SLPC     C29      CEL1    -0.150000       12.0110           0
     11503 MEMB     100      SLPC     H9R      HEL1     0.150000       1.00800           0
     11504 MEMB     100      SLPC     C210     CEL1    -0.150000       12.0110           0
     11505 MEMB     100      SLPC     H10R     HEL1     0.150000       1.00800           0
     11506 MEMB     100      SLPC     C211     CTL2    -0.180000       12.0110           0
     11507 MEMB     100      SLPC     H11R     HAL2     0.900000E-01   1.00800           0
     11508 MEMB     100      SLPC     H11S     HAL2     0.900000E-01   1.00800           0
     11509 MEMB     100      SLPC     C212     CEL1    -0.150000       12.0110           0
     11510 MEMB     100      SLPC     H12R     HEL1     0.150000       1.00800           0
     11511 MEMB     100      SLPC     C213     CEL1    -0.150000       12.0110           0
     11512 MEMB     100      SLPC     H13R     HEL1     0.150000       1.00800           0
     11513 MEMB     100      SLPC     C214     CTL2    -0.180000       12.0110           0
     11514 MEMB     100      SLPC     H14R     HAL2     0.900000E-01   1.00800           0
     11515 MEMB     100      SLPC     H14S     HAL2     0.900000E-01   1.00800           0
     11516 MEMB     100      SLPC     C215     CTL2    -0.180000       12.0110           0
     11517 MEMB     100      SLPC     H15R     HAL2     0.900000E-01   1.00800           0
     11518 MEMB     100      SLPC     H15S     HAL2     0.900000E-01   1.00800           0
     11519 MEMB     100      SLPC     C216     CTL2    -0.180000       12.0110           0
     11520 MEMB     100      SLPC     H16R     HAL2     0.900000E-01   1.00800           0
     11521 MEMB     100      SLPC     H16S     HAL2     0.900000E-01   1.00800           0
     11522 MEMB     100      SLPC     C217     CTL2    -0.180000       12.0110           0
     11523 MEMB     100      SLPC     H17R     HAL2     0.900000E-01   1.00800           0
     11524 MEMB     100      SLPC     H17S     HAL2     0.900000E-01   1.00800           0
     11525 MEMB     100      SLPC     C218     CTL3    -0.270000       12.0110           0
     11526 MEMB     100      SLPC     H18R     HAL3     0.900000E-01   1.00800           0
     11527 MEMB     100      SLPC     H18S     HAL3     0.900000E-01   1.00800           0
     11528 MEMB     100      SLPC     H18T     HAL3     0.900000E-01   1.00800           0
     11529 MEMB     100      SLPC     C33      CTL2    -0.180000       12.0110           0
     11530 MEMB     100      SLPC     H3X      HAL2     0.900000E-01   1.00800           0
     11531 MEMB     100      SLPC     H3Y      HAL2     0.900000E-01   1.00800           0
     11532 MEMB     100      SLPC     C34      CTL2    -0.180000       12.0110           0
     11533 MEMB     100      SLPC     H4X      HAL2     0.900000E-01   1.00800           0
     11534 MEMB     100      SLPC     H4Y      HAL2     0.900000E-01   1.00800           0
     11535 MEMB     100      SLPC     C35      CTL2    -0.180000       12.0110           0
     11536 MEMB     100      SLPC     H5X      HAL2     0.900000E-01   1.00800           0
     11537 MEMB     100      SLPC     H5Y      HAL2     0.900000E-01   1.00800           0
     11538 MEMB     100      SLPC     C36      CTL2    -0.180000       12.0110           0
     11539 MEMB     100      SLPC     H6X      HAL2     0.900000E-01   1.00800           0
     11540 MEMB     100      SLPC     H6Y      HAL2     0.900000E-01   1.00800           0
     11541 MEMB     100      SLPC     C37      CTL2    -0.180000       12.0110           0
     11542 MEMB     100      SLPC     H7X      HAL2     0.900000E-01   1.00800           0
     11543 MEMB     100      SLPC     H7Y      HAL2     0.900000E-01   1.00800           0
     11544 MEMB     100      SLPC     C38      CTL2    -0.180000       12.0110           0
     11545 MEMB     100      SLPC     H8X      HAL2     0.900000E-01   1.00800           0
     11546 MEMB     100      SLPC     H8Y      HAL2     0.900000E-01   1.00800           0
     11547 MEMB     100      SLPC     C39      CTL2    -0.180000       12.0110           0
     11548 MEMB     100      SLPC     H9X      HAL2     0.900000E-01   1.00800           0
     11549 MEMB     100      SLPC     H9Y      HAL2     0.900000E-01   1.00800           0
     11550 MEMB     100      SLPC     C310     CTL2    -0.180000       12.0110           0
     11551 MEMB     100      SLPC     H10X     HAL2     0.900000E-01   1.00800           0
     11552 MEMB     100      SLPC     H10Y     HAL2     0.900000E-01   1.00800           0
     11553 MEMB     100      SLPC     C311     CTL2    -0.180000       12.0110           0
     11554 MEMB     100      SLPC     H11X     HAL2     0.900000E-01   1.00800           0
     11555 MEMB     100      SLPC     H11Y     HAL2     0.900000E-01   1.00800           0
     11556 MEMB     100      SLPC     C312     CTL2    -0.180000       12.0110           0
     11557 MEMB     100      SLPC     H12X     HAL2     0.900000E-01   1.00800           0
     11558 MEMB     100      SLPC     H12Y     HAL2     0.900000E-01   1.00800           0
     11559 MEMB     100      SLPC     C313     CTL2    -0.180000       12.0110           0
     11560 MEMB     100      SLPC     H13X     HAL2     0.900000E-01   1.00800           0
     11561 MEMB     100      SLPC     H13Y     HAL2     0.900000E-01   1.00800           0
     11562 MEMB     100      SLPC     C314     CTL2    -0.180000       12.0110           0
     11563 MEMB     100      SLPC     H14X     HAL2     0.900000E-01   1.00800           0
     11564 MEMB     100      SLPC     H14Y     HAL2     0.900000E-01   1.00800           0
     11565 MEMB     100      SLPC     C315     CTL2    -0.180000       12.0110           0
     11566 MEMB     100      SLPC     H15X     HAL2     0.900000E-01   1.00800           0
     11567 MEMB     100      SLPC     H15Y     HAL2     0.900000E-01   1.00800           0
     11568 MEMB     100      SLPC     C316     CTL2    -0.180000       12.0110           0
     11569 MEMB     100      SLPC     H16X     HAL2     0.900000E-01   1.00800           0
     11570 MEMB     100      SLPC     H16Y     HAL2     0.900000E-01   1.00800           0
     11571 MEMB     100      SLPC     C317     CTL2    -0.180000       12.0110           0
     11572 MEMB     100      SLPC     H17X     HAL2     0.900000E-01   1.00800           0
     11573 MEMB     100      SLPC     H17Y     HAL2     0.900000E-01   1.00800           0
     11574 MEMB     100      SLPC     C318     CTL3    -0.270000       12.0110           0
     11575 MEMB     100      SLPC     H18X     HAL3     0.900000E-01   1.00800           0
     11576 MEMB     100      SLPC     H18Y     HAL3     0.900000E-01   1.00800           0
     11577 MEMB     100      SLPC     H18Z     HAL3     0.900000E-01   1.00800           0
     11578 MEMB     101      SAPS     N        NH3L    -0.300000       14.0070           0
     11579 MEMB     101      SAPS     HN1      HCL      0.330000       1.00800           0
     11580 MEMB     101      SAPS     HN2      HCL      0.330000       1.00800           0
     11581 MEMB     101      SAPS     HN3      HCL      0.330000       1.00800           0
     11582 MEMB     101      SAPS     C12      CTL1     0.210000       12.0110           0
     11583 MEMB     101      SAPS     H12A     HBL      0.100000       1.00800           0
     11584 MEMB     101      SAPS     C13      CCL      0.340000       12.0110           0
     11585 MEMB     101      SAPS     O13A     OCL     -0.670000       15.9994           0
     11586 MEMB     101      SAPS     O13B     OCL     -0.670000       15.9994           0
     11587 MEMB     101      SAPS     C11      CTL2    -0.800000E-01   12.0110           0
     11588 MEMB     101      SAPS     H11A     HAL2     0.900000E-01   1.00800           0
     11589 MEMB     101      SAPS     H11B     HAL2     0.900000E-01   1.00800           0
     11590 MEMB     101      SAPS     P        PL        1.50000       30.9740           0
     11591 MEMB     101      SAPS     O13      O2L     -0.780000       15.9994           0
     11592 MEMB     101      SAPS     O14      O2L     -0.780000       15.9994           0
     11593 MEMB     101      SAPS     O12      OSLP    -0.570000       15.9994           0
     11594 MEMB     101      SAPS     O11      OSLP    -0.570000       15.9994           0
     11595 MEMB     101      SAPS     C1       CTL2    -0.800000E-01   12.0110           0
     11596 MEMB     101      SAPS     HA       HAL2     0.900000E-01   1.00800           0
     11597 MEMB     101      SAPS     HB       HAL2     0.900000E-01   1.00800           0
     11598 MEMB     101      SAPS     C2       CTL1     0.170000       12.0110           0
     11599 MEMB     101      SAPS     HS       HAL1     0.900000E-01   1.00800           0
     11600 MEMB     101      SAPS     O21      OSL     -0.490000       15.9994           0
     11601 MEMB     101      SAPS     C21      CL       0.900000       12.0110           0
     11602 MEMB     101      SAPS     O22      OBL     -0.630000       15.9994           0
     11603 MEMB     101      SAPS     C22      CTL2    -0.220000       12.0110           0
     11604 MEMB     101      SAPS     H2R      HAL2     0.900000E-01   1.00800           0
     11605 MEMB     101      SAPS     H2S      HAL2     0.900000E-01   1.00800           0
     11606 MEMB     101      SAPS     C3       CTL2     0.800000E-01   12.0110           0
     11607 MEMB     101      SAPS     HX       HAL2     0.900000E-01   1.00800           0
     11608 MEMB     101      SAPS     HY       HAL2     0.900000E-01   1.00800           0
     11609 MEMB     101      SAPS     O31      OSL     -0.490000       15.9994           0
     11610 MEMB     101      SAPS     C31      CL       0.900000       12.0110           0
     11611 MEMB     101      SAPS     O32      OBL     -0.630000       15.9994           0
     11612 MEMB     101      SAPS     C32      CTL2    -0.220000       12.0110           0
     11613 MEMB     101      SAPS     H2X      HAL2     0.900000E-01   1.00800           0
     11614 MEMB     101      SAPS     H2Y      HAL2     0.900000E-01   1.00800           0
     11615 MEMB     101      SAPS     C23      CTL2    -0.180000       12.0110           0
     11616 MEMB     101      SAPS     H3R      HAL2     0.900000E-01   1.00800           0
     11617 MEMB     101      SAPS     H3S      HAL2     0.900000E-01   1.00800           0
     11618 MEMB     101      SAPS     C24      CTL2    -0.180000       12.0110           0
     11619 MEMB     101      SAPS     H4R      HAL2     0.900000E-01   1.00800           0
     11620 MEMB     101      SAPS     H4S      HAL2     0.900000E-01   1.00800           0
     11621 MEMB     101      SAPS     C25      CEL1    -0.150000       12.0110           0
     11622 MEMB     101      SAPS     H5R      HEL1     0.150000       1.00800           0
     11623 MEMB     101      SAPS     C26      CEL1    -0.150000       12.0110           0
     11624 MEMB     101      SAPS     H6R      HEL1     0.150000       1.00800           0
     11625 MEMB     101      SAPS     C27      CTL2    -0.180000       12.0110           0
     11626 MEMB     101      SAPS     H7R      HAL2     0.900000E-01   1.00800           0
     11627 MEMB     101      SAPS     H7S      HAL2     0.900000E-01   1.00800           0
     11628 MEMB     101      SAPS     C28      CEL1    -0.150000       12.0110           0
     11629 MEMB     101      SAPS     H8R      HEL1     0.150000       1.00800           0
     11630 MEMB     101      SAPS     C29      CEL1    -0.150000       12.0110           0
     11631 MEMB     101      SAPS     H9R      HEL1     0.150000       1.00800           0
     11632 MEMB     101      SAPS     C210     CTL2    -0.180000       12.0110           0
     11633 MEMB     101      SAPS     H10R     HAL2     0.900000E-01   1.00800           0
     11634 MEMB     101      SAPS     H10S     HAL2     0.900000E-01   1.00800           0
     11635 MEMB     101      SAPS     C211     CEL1    -0.150000       12.0110           0
     11636 MEMB     101      SAPS     H11R     HEL1     0.150000       1.00800           0
     11637 MEMB     101      SAPS     C212     CEL1    -0.150000       12.0110           0
     11638 MEMB     101      SAPS     H12R     HEL1     0.150000       1.00800           0
     11639 MEMB     101      SAPS     C213     CTL2    -0.180000       12.0110           0
     11640 MEMB     101      SAPS     H13R     HAL2     0.900000E-01   1.00800           0
     11641 MEMB     101      SAPS     H13S     HAL2     0.900000E-01   1.00800           0
     11642 MEMB     101      SAPS     C214     CEL1    -0.150000       12.0110           0
     11643 MEMB     101      SAPS     H14R     HEL1     0.150000       1.00800           0
     11644 MEMB     101      SAPS     C215     CEL1    -0.150000       12.0110           0
     11645 MEMB     101      SAPS     H15R     HEL1     0.150000       1.00800           0
     11646 MEMB     101      SAPS     C216     CTL2    -0.180000       12.0110           0
     11647 MEMB     101      SAPS     H16R     HAL2     0.900000E-01   1.00800           0
     11648 MEMB     101      SAPS     H16S     HAL2     0.900000E-01   1.00800           0
     11649 MEMB     101      SAPS     C217     CTL2    -0.180000       12.0110           0
     11650 MEMB     101      SAPS     H17R     HAL2     0.900000E-01   1.00800           0
     11651 MEMB     101      SAPS     H17S     HAL2     0.900000E-01   1.00800           0
     11652 MEMB     101      SAPS     C218     CTL2    -0.180000       12.0110           0
     11653 MEMB     101      SAPS     H18R     HAL2     0.900000E-01   1.00800           0
     11654 MEMB     101      SAPS     H18S     HAL2     0.900000E-01   1.00800           0
     11655 MEMB     101      SAPS     C219     CTL2    -0.180000       12.0110           0
     11656 MEMB     101      SAPS     H19R     HAL2     0.900000E-01   1.00800           0
     11657 MEMB     101      SAPS     H19S     HAL2     0.900000E-01   1.00800           0
     11658 MEMB     101      SAPS     C220     CTL3    -0.270000       12.0110           0
     11659 MEMB     101      SAPS     H20R     HAL3     0.900000E-01   1.00800           0
     11660 MEMB     101      SAPS     H20S     HAL3     0.900000E-01   1.00800           0
     11661 MEMB     101      SAPS     H20T     HAL3     0.900000E-01   1.00800           0
     11662 MEMB     101      SAPS     C33      CTL2    -0.180000       12.0110           0
     11663 MEMB     101      SAPS     H3X      HAL2     0.900000E-01   1.00800           0
     11664 MEMB     101      SAPS     H3Y      HAL2     0.900000E-01   1.00800           0
     11665 MEMB     101      SAPS     C34      CTL2    -0.180000       12.0110           0
     11666 MEMB     101      SAPS     H4X      HAL2     0.900000E-01   1.00800           0
     11667 MEMB     101      SAPS     H4Y      HAL2     0.900000E-01   1.00800           0
     11668 MEMB     101      SAPS     C35      CTL2    -0.180000       12.0110           0
     11669 MEMB     101      SAPS     H5X      HAL2     0.900000E-01   1.00800           0
     11670 MEMB     101      SAPS     H5Y      HAL2     0.900000E-01   1.00800           0
     11671 MEMB     101      SAPS     C36      CTL2    -0.180000       12.0110           0
     11672 MEMB     101      SAPS     H6X      HAL2     0.900000E-01   1.00800           0
     11673 MEMB     101      SAPS     H6Y      HAL2     0.900000E-01   1.00800           0
     11674 MEMB     101      SAPS     C37      CTL2    -0.180000       12.0110           0
     11675 MEMB     101      SAPS     H7X      HAL2     0.900000E-01   1.00800           0
     11676 MEMB     101      SAPS     H7Y      HAL2     0.900000E-01   1.00800           0
     11677 MEMB     101      SAPS     C38      CTL2    -0.180000       12.0110           0
     11678 MEMB     101      SAPS     H8X      HAL2     0.900000E-01   1.00800           0
     11679 MEMB     101      SAPS     H8Y      HAL2     0.900000E-01   1.00800           0
     11680 MEMB     101      SAPS     C39      CTL2    -0.180000       12.0110           0
     11681 MEMB     101      SAPS     H9X      HAL2     0.900000E-01   1.00800           0
     11682 MEMB     101      SAPS     H9Y      HAL2     0.900000E-01   1.00800           0
     11683 MEMB     101      SAPS     C310     CTL2    -0.180000       12.0110           0
     11684 MEMB     101      SAPS     H10X     HAL2     0.900000E-01   1.00800           0
     11685 MEMB     101      SAPS     H10Y     HAL2     0.900000E-01   1.00800           0
     11686 MEMB     101      SAPS     C311     CTL2    -0.180000       12.0110           0
     11687 MEMB     101      SAPS     H11X     HAL2     0.900000E-01   1.00800           0
     11688 MEMB     101      SAPS     H11Y     HAL2     0.900000E-01   1.00800           0
     11689 MEMB     101      SAPS     C312     CTL2    -0.180000       12.0110           0
     11690 MEMB     101      SAPS     H12X     HAL2     0.900000E-01   1.00800           0
     11691 MEMB     101      SAPS     H12Y     HAL2     0.900000E-01   1.00800           0
     11692 MEMB     101      SAPS     C313     CTL2    -0.180000       12.0110           0
     11693 MEMB     101      SAPS     H13X     HAL2     0.900000E-01   1.00800           0
     11694 MEMB     101      SAPS     H13Y     HAL2     0.900000E-01   1.00800           0
     11695 MEMB     101      SAPS     C314     CTL2    -0.180000       12.0110           0
     11696 MEMB     101      SAPS     H14X     HAL2     0.900000E-01   1.00800           0
     11697 MEMB     101      SAPS     H14Y     HAL2     0.900000E-01   1.00800           0
     11698 MEMB     101      SAPS     C315     CTL2    -0.180000       12.0110           0
     11699 MEMB     101      SAPS     H15X     HAL2     0.900000E-01   1.00800           0
     11700 MEMB     101      SAPS     H15Y     HAL2     0.900000E-01   1.00800           0
     11701 MEMB     101      SAPS     C316     CTL2    -0.180000       12.0110           0
     11702 MEMB     101      SAPS     H16X     HAL2     0.900000E-01   1.00800           0
     11703 MEMB     101      SAPS     H16Y     HAL2     0.900000E-01   1.00800           0
     11704 MEMB     101      SAPS     C317     CTL2    -0.180000       12.0110           0
     11705 MEMB     101      SAPS     H17X     HAL2     0.900000E-01   1.00800           0
     11706 MEMB     101      SAPS     H17Y     HAL2     0.900000E-01   1.00800           0
     11707 MEMB     101      SAPS     C318     CTL3    -0.270000       12.0110           0
     11708 MEMB     101      SAPS     H18X     HAL3     0.900000E-01   1.00800           0
     11709 MEMB     101      SAPS     H18Y     HAL3     0.900000E-01   1.00800           0
     11710 MEMB     101      SAPS     H18Z     HAL3     0.900000E-01   1.00800           0
     11711 MEMB     102      OSM      N        NTL     -0.600000       14.0070           0
     11712 MEMB     102      OSM      C15      CTL5    -0.350000       12.0110           0
     11713 MEMB     102      OSM      H15A     HL       0.250000       1.00800           0
     11714 MEMB     102      OSM      H15B     HL       0.250000       1.00800           0
     11715 MEMB     102      OSM      H15C     HL       0.250000       1.00800           0
     11716 MEMB     102      OSM      C14      CTL5    -0.350000       12.0110           0
     11717 MEMB     102      OSM      H14A     HL       0.250000       1.00800           0
     11718 MEMB     102      OSM      H14B     HL       0.250000       1.00800           0
     11719 MEMB     102      OSM      H14C     HL       0.250000       1.00800           0
     11720 MEMB     102      OSM      C13      CTL5    -0.350000       12.0110           0
     11721 MEMB     102      OSM      H13A     HL       0.250000       1.00800           0
     11722 MEMB     102      OSM      H13B     HL       0.250000       1.00800           0
     11723 MEMB     102      OSM      H13C     HL       0.250000       1.00800           0
     11724 MEMB     102      OSM      C12      CTL2    -0.100000       12.0110           0
     11725 MEMB     102      OSM      H12A     HL       0.250000       1.00800           0
     11726 MEMB     102      OSM      H12B     HL       0.250000       1.00800           0
     11727 MEMB     102      OSM      C11      CTL2    -0.800000E-01   12.0110           0
     11728 MEMB     102      OSM      H11A     HAL2     0.900000E-01   1.00800           0
     11729 MEMB     102      OSM      H11B     HAL2     0.900000E-01   1.00800           0
     11730 MEMB     102      OSM      P        PL        1.50000       30.9740           0
     11731 MEMB     102      OSM      O13      O2L     -0.780000       15.9994           0
     11732 MEMB     102      OSM      O14      O2L     -0.780000       15.9994           0
     11733 MEMB     102      OSM      O11      OSLP    -0.570000       15.9994           0
     11734 MEMB     102      OSM      O12      OSLP    -0.570000       15.9994           0
     11735 MEMB     102      OSM      C1S      CTL2    -0.800000E-01   12.0110           0
     11736 MEMB     102      OSM      H1S      HAL2     0.900000E-01   1.00800           0
     11737 MEMB     102      OSM      H1T      HAL2     0.900000E-01   1.00800           0
     11738 MEMB     102      OSM      NF       NHL     -0.700000       14.0070           0
     11739 MEMB     102      OSM      HNF      H        0.350000       1.00800           0
     11740 MEMB     102      OSM      C2S      CTL1     0.300000       12.0110           0
     11741 MEMB     102      OSM      H2S      HAL1     0.500000E-01   1.00800           0
     11742 MEMB     102      OSM      C3S      CTO1     0.500000       12.0110           0
     11743 MEMB     102      OSM      H3S      HAL1    -0.110000       1.00800           0
     11744 MEMB     102      OSM      O3       OHL     -0.690000       15.9994           0
     11745 MEMB     102      OSM      HO3      HOL      0.300000       1.00800           0
     11746 MEMB     102      OSM      C4S      CEL3    -0.150000       12.0110           0
     11747 MEMB     102      OSM      H4S      HEL1     0.150000       1.00800           0
     11748 MEMB     102      OSM      C5S      CEL3    -0.150000       12.0110           0
     11749 MEMB     102      OSM      H5S      HEL1     0.150000       1.00800           0
     11750 MEMB     102      OSM      C6S      CTL2    -0.180000       12.0110           0
     11751 MEMB     102      OSM      H6S      HAL2     0.900000E-01   1.00800           0
     11752 MEMB     102      OSM      H6T      HAL2     0.900000E-01   1.00800           0
     11753 MEMB     102      OSM      C7S      CTL2    -0.180000       12.0110           0
     11754 MEMB     102      OSM      H7S      HAL2     0.900000E-01   1.00800           0
     11755 MEMB     102      OSM      H7T      HAL2     0.900000E-01   1.00800           0
     11756 MEMB     102      OSM      C8S      CTL2    -0.180000       12.0110           0
     11757 MEMB     102      OSM      H8S      HAL2     0.900000E-01   1.00800           0
     11758 MEMB     102      OSM      H8T      HAL2     0.900000E-01   1.00800           0
     11759 MEMB     102      OSM      C9S      CTL2    -0.180000       12.0110           0
     11760 MEMB     102      OSM      H9S      HAL2     0.900000E-01   1.00800           0
     11761 MEMB     102      OSM      H9T      HAL2     0.900000E-01   1.00800           0
     11762 MEMB     102      OSM      C10S     CTL2    -0.180000       12.0110           0
     11763 MEMB     102      OSM      H10S     HAL2     0.900000E-01   1.00800           0
     11764 MEMB     102      OSM      H10T     HAL2     0.900000E-01   1.00800           0
     11765 MEMB     102      OSM      C11S     CTL2    -0.180000       12.0110           0
     11766 MEMB     102      OSM      H11S     HAL2     0.900000E-01   1.00800           0
     11767 MEMB     102      OSM      H11T     HAL2     0.900000E-01   1.00800           0
     11768 MEMB     102      OSM      C12S     CTL2    -0.180000       12.0110           0
     11769 MEMB     102      OSM      H12S     HAL2     0.900000E-01   1.00800           0
     11770 MEMB     102      OSM      H12T     HAL2     0.900000E-01   1.00800           0
     11771 MEMB     102      OSM      C13S     CTL2    -0.180000       12.0110           0
     11772 MEMB     102      OSM      H13S     HAL2     0.900000E-01   1.00800           0
     11773 MEMB     102      OSM      H13T     HAL2     0.900000E-01   1.00800           0
     11774 MEMB     102      OSM      C14S     CTL2    -0.180000       12.0110           0
     11775 MEMB     102      OSM      H14S     HAL2     0.900000E-01   1.00800           0
     11776 MEMB     102      OSM      H14T     HAL2     0.900000E-01   1.00800           0
     11777 MEMB     102      OSM      C15S     CTL2    -0.180000       12.0110           0
     11778 MEMB     102      OSM      H15S     HAL2     0.900000E-01   1.00800           0
     11779 MEMB     102      OSM      H15T     HAL2     0.900000E-01   1.00800           0
     11780 MEMB     102      OSM      C16S     CTL2    -0.180000       12.0110           0
     11781 MEMB     102      OSM      H16S     HAL2     0.900000E-01   1.00800           0
     11782 MEMB     102      OSM      H16T     HAL2     0.900000E-01   1.00800           0
     11783 MEMB     102      OSM      C17S     CTL2    -0.180000       12.0110           0
     11784 MEMB     102      OSM      H17S     HAL2     0.900000E-01   1.00800           0
     11785 MEMB     102      OSM      H17T     HAL2     0.900000E-01   1.00800           0
     11786 MEMB     102      OSM      C18S     CTL3    -0.270000       12.0110           0
     11787 MEMB     102      OSM      H18S     HAL3     0.900000E-01   1.00800           0
     11788 MEMB     102      OSM      H18T     HAL3     0.900000E-01   1.00800           0
     11789 MEMB     102      OSM      H18U     HAL3     0.900000E-01   1.00800           0
     11790 MEMB     102      OSM      C1F      C        0.550000       12.0110           0
     11791 MEMB     102      OSM      OF       O       -0.600000       15.9994           0
     11792 MEMB     102      OSM      C2F      CTL2    -0.700000E-01   12.0110           0
     11793 MEMB     102      OSM      H2F      HAL2     0.600000E-01   1.00800           0
     11794 MEMB     102      OSM      H2G      HAL2     0.600000E-01   1.00800           0
     11795 MEMB     102      OSM      C3F      CTL2    -0.180000       12.0110           0
     11796 MEMB     102      OSM      H3F      HAL2     0.900000E-01   1.00800           0
     11797 MEMB     102      OSM      H3G      HAL2     0.900000E-01   1.00800           0
     11798 MEMB     102      OSM      C4F      CTL2    -0.180000       12.0110           0
     11799 MEMB     102      OSM      H4F      HAL2     0.900000E-01   1.00800           0
     11800 MEMB     102      OSM      H4G      HAL2     0.900000E-01   1.00800           0
     11801 MEMB     102      OSM      C5F      CTL2    -0.180000       12.0110           0
     11802 MEMB     102      OSM      H5F      HAL2     0.900000E-01   1.00800           0
     11803 MEMB     102      OSM      H5G      HAL2     0.900000E-01   1.00800           0
     11804 MEMB     102      OSM      C6F      CTL2    -0.180000       12.0110           0
     11805 MEMB     102      OSM      H6F      HAL2     0.900000E-01   1.00800           0
     11806 MEMB     102      OSM      H6G      HAL2     0.900000E-01   1.00800           0
     11807 MEMB     102      OSM      C7F      CTL2    -0.180000       12.0110           0
     11808 MEMB     102      OSM      H7F      HAL2     0.900000E-01   1.00800           0
     11809 MEMB     102      OSM      H7G      HAL2     0.900000E-01   1.00800           0
     11810 MEMB     102      OSM      C8F      CTL2    -0.180000       12.0110           0
     11811 MEMB     102      OSM      H8F      HAL2     0.900000E-01   1.00800           0
     11812 MEMB     102      OSM      H8G      HAL2     0.900000E-01   1.00800           0
     11813 MEMB     102      OSM      C9F      CEL1    -0.150000       12.0110           0
     11814 MEMB     102      OSM      H9F      HEL1     0.150000       1.00800           0
     11815 MEMB     102      OSM      C10F     CEL1    -0.150000       12.0110           0
     11816 MEMB     102      OSM      H10F     HEL1     0.150000       1.00800           0
     11817 MEMB     102      OSM      C11F     CTL2    -0.180000       12.0110           0
     11818 MEMB     102      OSM      H11F     HAL2     0.900000E-01   1.00800           0
     11819 MEMB     102      OSM      H11G     HAL2     0.900000E-01   1.00800           0
     11820 MEMB     102      OSM      C12F     CTL2    -0.180000       12.0110           0
     11821 MEMB     102      OSM      H12F     HAL2     0.900000E-01   1.00800           0
     11822 MEMB     102      OSM      H12G     HAL2     0.900000E-01   1.00800           0
     11823 MEMB     102      OSM      C13F     CTL2    -0.180000       12.0110           0
     11824 MEMB     102      OSM      H13F     HAL2     0.900000E-01   1.00800           0
     11825 MEMB     102      OSM      H13G     HAL2     0.900000E-01   1.00800           0
     11826 MEMB     102      OSM      C14F     CTL2    -0.180000       12.0110           0
     11827 MEMB     102      OSM      H14F     HAL2     0.900000E-01   1.00800           0
     11828 MEMB     102      OSM      H14G     HAL2     0.900000E-01   1.00800           0
     11829 MEMB     102      OSM      C15F     CTL2    -0.180000       12.0110           0
     11830 MEMB     102      OSM      H15F     HAL2     0.900000E-01   1.00800           0
     11831 MEMB     102      OSM      H15G     HAL2     0.900000E-01   1.00800           0
     11832 MEMB     102      OSM      C16F     CTL2    -0.180000       12.0110           0
     11833 MEMB     102      OSM      H16F     HAL2     0.900000E-01   1.00800           0
     11834 MEMB     102      OSM      H16G     HAL2     0.900000E-01   1.00800           0
     11835 MEMB     102      OSM      C17F     CTL2    -0.180000       12.0110           0
     11836 MEMB     102      OSM      H17F     HAL2     0.900000E-01   1.00800           0
     11837 MEMB     102      OSM      H17G     HAL2     0.900000E-01   1.00800           0
     11838 MEMB     102      OSM      C18F     CTL3    -0.270000       12.0110           0
     11839 MEMB     102      OSM      H18F     HAL3     0.900000E-01   1.00800           0
     11840 MEMB     102      OSM      H18G     HAL3     0.900000E-01   1.00800           0
     11841 MEMB     102      OSM      H18H     HAL3     0.900000E-01   1.00800           0
     11842 MEMB     103      SAPE     N        NH3L    -0.300000       14.0070           0
     11843 MEMB     103      SAPE     HN1      HCL      0.330000       1.00800           0
     11844 MEMB     103      SAPE     HN2      HCL      0.330000       1.00800           0
     11845 MEMB     103      SAPE     HN3      HCL      0.330000       1.00800           0
     11846 MEMB     103      SAPE     C12      CTL2     0.130000       12.0110           0
     11847 MEMB     103      SAPE     H12A     HAL2     0.900000E-01   1.00800           0
     11848 MEMB     103      SAPE     H12B     HAL2     0.900000E-01   1.00800           0
     11849 MEMB     103      SAPE     C11      CTL2    -0.800000E-01   12.0110           0
     11850 MEMB     103      SAPE     H11A     HAL2     0.900000E-01   1.00800           0
     11851 MEMB     103      SAPE     H11B     HAL2     0.900000E-01   1.00800           0
     11852 MEMB     103      SAPE     P        PL        1.50000       30.9740           0
     11853 MEMB     103      SAPE     O13      O2L     -0.780000       15.9994           0
     11854 MEMB     103      SAPE     O14      O2L     -0.780000       15.9994           0
     11855 MEMB     103      SAPE     O12      OSLP    -0.570000       15.9994           0
     11856 MEMB     103      SAPE     O11      OSLP    -0.570000       15.9994           0
     11857 MEMB     103      SAPE     C1       CTL2    -0.800000E-01   12.0110           0
     11858 MEMB     103      SAPE     HA       HAL2     0.900000E-01   1.00800           0
     11859 MEMB     103      SAPE     HB       HAL2     0.900000E-01   1.00800           0
     11860 MEMB     103      SAPE     C2       CTL1     0.170000       12.0110           0
     11861 MEMB     103      SAPE     HS       HAL1     0.900000E-01   1.00800           0
     11862 MEMB     103      SAPE     O21      OSL     -0.490000       15.9994           0
     11863 MEMB     103      SAPE     C21      CL       0.900000       12.0110           0
     11864 MEMB     103      SAPE     O22      OBL     -0.630000       15.9994           0
     11865 MEMB     103      SAPE     C22      CTL2    -0.220000       12.0110           0
     11866 MEMB     103      SAPE     H2R      HAL2     0.900000E-01   1.00800           0
     11867 MEMB     103      SAPE     H2S      HAL2     0.900000E-01   1.00800           0
     11868 MEMB     103      SAPE     C3       CTL2     0.800000E-01   12.0110           0
     11869 MEMB     103      SAPE     HX       HAL2     0.900000E-01   1.00800           0
     11870 MEMB     103      SAPE     HY       HAL2     0.900000E-01   1.00800           0
     11871 MEMB     103      SAPE     O31      OSL     -0.490000       15.9994           0
     11872 MEMB     103      SAPE     C31      CL       0.900000       12.0110           0
     11873 MEMB     103      SAPE     O32      OBL     -0.630000       15.9994           0
     11874 MEMB     103      SAPE     C32      CTL2    -0.220000       12.0110           0
     11875 MEMB     103      SAPE     H2X      HAL2     0.900000E-01   1.00800           0
     11876 MEMB     103      SAPE     H2Y      HAL2     0.900000E-01   1.00800           0
     11877 MEMB     103      SAPE     C23      CTL2    -0.180000       12.0110           0
     11878 MEMB     103      SAPE     H3R      HAL2     0.900000E-01   1.00800           0
     11879 MEMB     103      SAPE     H3S      HAL2     0.900000E-01   1.00800           0
     11880 MEMB     103      SAPE     C24      CTL2    -0.180000       12.0110           0
     11881 MEMB     103      SAPE     H4R      HAL2     0.900000E-01   1.00800           0
     11882 MEMB     103      SAPE     H4S      HAL2     0.900000E-01   1.00800           0
     11883 MEMB     103      SAPE     C25      CEL1    -0.150000       12.0110           0
     11884 MEMB     103      SAPE     H5R      HEL1     0.150000       1.00800           0
     11885 MEMB     103      SAPE     C26      CEL1    -0.150000       12.0110           0
     11886 MEMB     103      SAPE     H6R      HEL1     0.150000       1.00800           0
     11887 MEMB     103      SAPE     C27      CTL2    -0.180000       12.0110           0
     11888 MEMB     103      SAPE     H7R      HAL2     0.900000E-01   1.00800           0
     11889 MEMB     103      SAPE     H7S      HAL2     0.900000E-01   1.00800           0
     11890 MEMB     103      SAPE     C28      CEL1    -0.150000       12.0110           0
     11891 MEMB     103      SAPE     H8R      HEL1     0.150000       1.00800           0
     11892 MEMB     103      SAPE     C29      CEL1    -0.150000       12.0110           0
     11893 MEMB     103      SAPE     H9R      HEL1     0.150000       1.00800           0
     11894 MEMB     103      SAPE     C210     CTL2    -0.180000       12.0110           0
     11895 MEMB     103      SAPE     H10R     HAL2     0.900000E-01   1.00800           0
     11896 MEMB     103      SAPE     H10S     HAL2     0.900000E-01   1.00800           0
     11897 MEMB     103      SAPE     C211     CEL1    -0.150000       12.0110           0
     11898 MEMB     103      SAPE     H11R     HEL1     0.150000       1.00800           0
     11899 MEMB     103      SAPE     C212     CEL1    -0.150000       12.0110           0
     11900 MEMB     103      SAPE     H12R     HEL1     0.150000       1.00800           0
     11901 MEMB     103      SAPE     C213     CTL2    -0.180000       12.0110           0
     11902 MEMB     103      SAPE     H13R     HAL2     0.900000E-01   1.00800           0
     11903 MEMB     103      SAPE     H13S     HAL2     0.900000E-01   1.00800           0
     11904 MEMB     103      SAPE     C214     CEL1    -0.150000       12.0110           0
     11905 MEMB     103      SAPE     H14R     HEL1     0.150000       1.00800           0
     11906 MEMB     103      SAPE     C215     CEL1    -0.150000       12.0110           0
     11907 MEMB     103      SAPE     H15R     HEL1     0.150000       1.00800           0
     11908 MEMB     103      SAPE     C216     CTL2    -0.180000       12.0110           0
     11909 MEMB     103      SAPE     H16R     HAL2     0.900000E-01   1.00800           0
     11910 MEMB     103      SAPE     H16S     HAL2     0.900000E-01   1.00800           0
     11911 MEMB     103      SAPE     C217     CTL2    -0.180000       12.0110           0
     11912 MEMB     103      SAPE     H17R     HAL2     0.900000E-01   1.00800           0
     11913 MEMB     103      SAPE     H17S     HAL2     0.900000E-01   1.00800           0
     11914 MEMB     103      SAPE     C218     CTL2    -0.180000       12.0110           0
     11915 MEMB     103      SAPE     H18R     HAL2     0.900000E-01   1.00800           0
     11916 MEMB     103      SAPE     H18S     HAL2     0.900000E-01   1.00800           0
     11917 MEMB     103      SAPE     C219     CTL2    -0.180000       12.0110           0
     11918 MEMB     103      SAPE     H19R     HAL2     0.900000E-01   1.00800           0
     11919 MEMB     103      SAPE     H19S     HAL2     0.900000E-01   1.00800           0
     11920 MEMB     103      SAPE     C220     CTL3    -0.270000       12.0110           0
     11921 MEMB     103      SAPE     H20R     HAL3     0.900000E-01   1.00800           0
     11922 MEMB     103      SAPE     H20S     HAL3     0.900000E-01   1.00800           0
     11923 MEMB     103      SAPE     H20T     HAL3     0.900000E-01   1.00800           0
     11924 MEMB     103      SAPE     C33      CTL2    -0.180000       12.0110           0
     11925 MEMB     103      SAPE     H3X      HAL2     0.900000E-01   1.00800           0
     11926 MEMB     103      SAPE     H3Y      HAL2     0.900000E-01   1.00800           0
     11927 MEMB     103      SAPE     C34      CTL2    -0.180000       12.0110           0
     11928 MEMB     103      SAPE     H4X      HAL2     0.900000E-01   1.00800           0
     11929 MEMB     103      SAPE     H4Y      HAL2     0.900000E-01   1.00800           0
     11930 MEMB     103      SAPE     C35      CTL2    -0.180000       12.0110           0
     11931 MEMB     103      SAPE     H5X      HAL2     0.900000E-01   1.00800           0
     11932 MEMB     103      SAPE     H5Y      HAL2     0.900000E-01   1.00800           0
     11933 MEMB     103      SAPE     C36      CTL2    -0.180000       12.0110           0
     11934 MEMB     103      SAPE     H6X      HAL2     0.900000E-01   1.00800           0
     11935 MEMB     103      SAPE     H6Y      HAL2     0.900000E-01   1.00800           0
     11936 MEMB     103      SAPE     C37      CTL2    -0.180000       12.0110           0
     11937 MEMB     103      SAPE     H7X      HAL2     0.900000E-01   1.00800           0
     11938 MEMB     103      SAPE     H7Y      HAL2     0.900000E-01   1.00800           0
     11939 MEMB     103      SAPE     C38      CTL2    -0.180000       12.0110           0
     11940 MEMB     103      SAPE     H8X      HAL2     0.900000E-01   1.00800           0
     11941 MEMB     103      SAPE     H8Y      HAL2     0.900000E-01   1.00800           0
     11942 MEMB     103      SAPE     C39      CTL2    -0.180000       12.0110           0
     11943 MEMB     103      SAPE     H9X      HAL2     0.900000E-01   1.00800           0
     11944 MEMB     103      SAPE     H9Y      HAL2     0.900000E-01   1.00800           0
     11945 MEMB     103      SAPE     C310     CTL2    -0.180000       12.0110           0
     11946 MEMB     103      SAPE     H10X     HAL2     0.900000E-01   1.00800           0
     11947 MEMB     103      SAPE     H10Y     HAL2     0.900000E-01   1.00800           0
     11948 MEMB     103      SAPE     C311     CTL2    -0.180000       12.0110           0
     11949 MEMB     103      SAPE     H11X     HAL2     0.900000E-01   1.00800           0
     11950 MEMB     103      SAPE     H11Y     HAL2     0.900000E-01   1.00800           0
     11951 MEMB     103      SAPE     C312     CTL2    -0.180000       12.0110           0
     11952 MEMB     103      SAPE     H12X     HAL2     0.900000E-01   1.00800           0
     11953 MEMB     103      SAPE     H12Y     HAL2     0.900000E-01   1.00800           0
     11954 MEMB     103      SAPE     C313     CTL2    -0.180000       12.0110           0
     11955 MEMB     103      SAPE     H13X     HAL2     0.900000E-01   1.00800           0
     11956 MEMB     103      SAPE     H13Y     HAL2     0.900000E-01   1.00800           0
     11957 MEMB     103      SAPE     C314     CTL2    -0.180000       12.0110           0
     11958 MEMB     103      SAPE     H14X     HAL2     0.900000E-01   1.00800           0
     11959 MEMB     103      SAPE     H14Y     HAL2     0.900000E-01   1.00800           0
     11960 MEMB     103      SAPE     C315     CTL2    -0.180000       12.0110           0
     11961 MEMB     103      SAPE     H15X     HAL2     0.900000E-01   1.00800           0
     11962 MEMB     103      SAPE     H15Y     HAL2     0.900000E-01   1.00800           0
     11963 MEMB     103      SAPE     C316     CTL2    -0.180000       12.0110           0
     11964 MEMB     103      SAPE     H16X     HAL2     0.900000E-01   1.00800           0
     11965 MEMB     103      SAPE     H16Y     HAL2     0.900000E-01   1.00800           0
     11966 MEMB     103      SAPE     C317     CTL2    -0.180000       12.0110           0
     11967 MEMB     103      SAPE     H17X     HAL2     0.900000E-01   1.00800           0
     11968 MEMB     103      SAPE     H17Y     HAL2     0.900000E-01   1.00800           0
     11969 MEMB     103      SAPE     C318     CTL3    -0.270000       12.0110           0
     11970 MEMB     103      SAPE     H18X     HAL3     0.900000E-01   1.00800           0
     11971 MEMB     103      SAPE     H18Y     HAL3     0.900000E-01   1.00800           0
     11972 MEMB     103      SAPE     H18Z     HAL3     0.900000E-01   1.00800           0
     11973 MEMB     104      OSM      N        NTL     -0.600000       14.0070           0
     11974 MEMB     104      OSM      C15      CTL5    -0.350000       12.0110           0
     11975 MEMB     104      OSM      H15A     HL       0.250000       1.00800           0
     11976 MEMB     104      OSM      H15B     HL       0.250000       1.00800           0
     11977 MEMB     104      OSM      H15C     HL       0.250000       1.00800           0
     11978 MEMB     104      OSM      C14      CTL5    -0.350000       12.0110           0
     11979 MEMB     104      OSM      H14A     HL       0.250000       1.00800           0
     11980 MEMB     104      OSM      H14B     HL       0.250000       1.00800           0
     11981 MEMB     104      OSM      H14C     HL       0.250000       1.00800           0
     11982 MEMB     104      OSM      C13      CTL5    -0.350000       12.0110           0
     11983 MEMB     104      OSM      H13A     HL       0.250000       1.00800           0
     11984 MEMB     104      OSM      H13B     HL       0.250000       1.00800           0
     11985 MEMB     104      OSM      H13C     HL       0.250000       1.00800           0
     11986 MEMB     104      OSM      C12      CTL2    -0.100000       12.0110           0
     11987 MEMB     104      OSM      H12A     HL       0.250000       1.00800           0
     11988 MEMB     104      OSM      H12B     HL       0.250000       1.00800           0
     11989 MEMB     104      OSM      C11      CTL2    -0.800000E-01   12.0110           0
     11990 MEMB     104      OSM      H11A     HAL2     0.900000E-01   1.00800           0
     11991 MEMB     104      OSM      H11B     HAL2     0.900000E-01   1.00800           0
     11992 MEMB     104      OSM      P        PL        1.50000       30.9740           0
     11993 MEMB     104      OSM      O13      O2L     -0.780000       15.9994           0
     11994 MEMB     104      OSM      O14      O2L     -0.780000       15.9994           0
     11995 MEMB     104      OSM      O11      OSLP    -0.570000       15.9994           0
     11996 MEMB     104      OSM      O12      OSLP    -0.570000       15.9994           0
     11997 MEMB     104      OSM      C1S      CTL2    -0.800000E-01   12.0110           0
     11998 MEMB     104      OSM      H1S      HAL2     0.900000E-01   1.00800           0
     11999 MEMB     104      OSM      H1T      HAL2     0.900000E-01   1.00800           0
     12000 MEMB     104      OSM      NF       NHL     -0.700000       14.0070           0
     12001 MEMB     104      OSM      HNF      H        0.350000       1.00800           0
     12002 MEMB     104      OSM      C2S      CTL1     0.300000       12.0110           0
     12003 MEMB     104      OSM      H2S      HAL1     0.500000E-01   1.00800           0
     12004 MEMB     104      OSM      C3S      CTO1     0.500000       12.0110           0
     12005 MEMB     104      OSM      H3S      HAL1    -0.110000       1.00800           0
     12006 MEMB     104      OSM      O3       OHL     -0.690000       15.9994           0
     12007 MEMB     104      OSM      HO3      HOL      0.300000       1.00800           0
     12008 MEMB     104      OSM      C4S      CEL3    -0.150000       12.0110           0
     12009 MEMB     104      OSM      H4S      HEL1     0.150000       1.00800           0
     12010 MEMB     104      OSM      C5S      CEL3    -0.150000       12.0110           0
     12011 MEMB     104      OSM      H5S      HEL1     0.150000       1.00800           0
     12012 MEMB     104      OSM      C6S      CTL2    -0.180000       12.0110           0
     12013 MEMB     104      OSM      H6S      HAL2     0.900000E-01   1.00800           0
     12014 MEMB     104      OSM      H6T      HAL2     0.900000E-01   1.00800           0
     12015 MEMB     104      OSM      C7S      CTL2    -0.180000       12.0110           0
     12016 MEMB     104      OSM      H7S      HAL2     0.900000E-01   1.00800           0
     12017 MEMB     104      OSM      H7T      HAL2     0.900000E-01   1.00800           0
     12018 MEMB     104      OSM      C8S      CTL2    -0.180000       12.0110           0
     12019 MEMB     104      OSM      H8S      HAL2     0.900000E-01   1.00800           0
     12020 MEMB     104      OSM      H8T      HAL2     0.900000E-01   1.00800           0
     12021 MEMB     104      OSM      C9S      CTL2    -0.180000       12.0110           0
     12022 MEMB     104      OSM      H9S      HAL2     0.900000E-01   1.00800           0
     12023 MEMB     104      OSM      H9T      HAL2     0.900000E-01   1.00800           0
     12024 MEMB     104      OSM      C10S     CTL2    -0.180000       12.0110           0
     12025 MEMB     104      OSM      H10S     HAL2     0.900000E-01   1.00800           0
     12026 MEMB     104      OSM      H10T     HAL2     0.900000E-01   1.00800           0
     12027 MEMB     104      OSM      C11S     CTL2    -0.180000       12.0110           0
     12028 MEMB     104      OSM      H11S     HAL2     0.900000E-01   1.00800           0
     12029 MEMB     104      OSM      H11T     HAL2     0.900000E-01   1.00800           0
     12030 MEMB     104      OSM      C12S     CTL2    -0.180000       12.0110           0
     12031 MEMB     104      OSM      H12S     HAL2     0.900000E-01   1.00800           0
     12032 MEMB     104      OSM      H12T     HAL2     0.900000E-01   1.00800           0
     12033 MEMB     104      OSM      C13S     CTL2    -0.180000       12.0110           0
     12034 MEMB     104      OSM      H13S     HAL2     0.900000E-01   1.00800           0
     12035 MEMB     104      OSM      H13T     HAL2     0.900000E-01   1.00800           0
     12036 MEMB     104      OSM      C14S     CTL2    -0.180000       12.0110           0
     12037 MEMB     104      OSM      H14S     HAL2     0.900000E-01   1.00800           0
     12038 MEMB     104      OSM      H14T     HAL2     0.900000E-01   1.00800           0
     12039 MEMB     104      OSM      C15S     CTL2    -0.180000       12.0110           0
     12040 MEMB     104      OSM      H15S     HAL2     0.900000E-01   1.00800           0
     12041 MEMB     104      OSM      H15T     HAL2     0.900000E-01   1.00800           0
     12042 MEMB     104      OSM      C16S     CTL2    -0.180000       12.0110           0
     12043 MEMB     104      OSM      H16S     HAL2     0.900000E-01   1.00800           0
     12044 MEMB     104      OSM      H16T     HAL2     0.900000E-01   1.00800           0
     12045 MEMB     104      OSM      C17S     CTL2    -0.180000       12.0110           0
     12046 MEMB     104      OSM      H17S     HAL2     0.900000E-01   1.00800           0
     12047 MEMB     104      OSM      H17T     HAL2     0.900000E-01   1.00800           0
     12048 MEMB     104      OSM      C18S     CTL3    -0.270000       12.0110           0
     12049 MEMB     104      OSM      H18S     HAL3     0.900000E-01   1.00800           0
     12050 MEMB     104      OSM      H18T     HAL3     0.900000E-01   1.00800           0
     12051 MEMB     104      OSM      H18U     HAL3     0.900000E-01   1.00800           0
     12052 MEMB     104      OSM      C1F      C        0.550000       12.0110           0
     12053 MEMB     104      OSM      OF       O       -0.600000       15.9994           0
     12054 MEMB     104      OSM      C2F      CTL2    -0.700000E-01   12.0110           0
     12055 MEMB     104      OSM      H2F      HAL2     0.600000E-01   1.00800           0
     12056 MEMB     104      OSM      H2G      HAL2     0.600000E-01   1.00800           0
     12057 MEMB     104      OSM      C3F      CTL2    -0.180000       12.0110           0
     12058 MEMB     104      OSM      H3F      HAL2     0.900000E-01   1.00800           0
     12059 MEMB     104      OSM      H3G      HAL2     0.900000E-01   1.00800           0
     12060 MEMB     104      OSM      C4F      CTL2    -0.180000       12.0110           0
     12061 MEMB     104      OSM      H4F      HAL2     0.900000E-01   1.00800           0
     12062 MEMB     104      OSM      H4G      HAL2     0.900000E-01   1.00800           0
     12063 MEMB     104      OSM      C5F      CTL2    -0.180000       12.0110           0
     12064 MEMB     104      OSM      H5F      HAL2     0.900000E-01   1.00800           0
     12065 MEMB     104      OSM      H5G      HAL2     0.900000E-01   1.00800           0
     12066 MEMB     104      OSM      C6F      CTL2    -0.180000       12.0110           0
     12067 MEMB     104      OSM      H6F      HAL2     0.900000E-01   1.00800           0
     12068 MEMB     104      OSM      H6G      HAL2     0.900000E-01   1.00800           0
     12069 MEMB     104      OSM      C7F      CTL2    -0.180000       12.0110           0
     12070 MEMB     104      OSM      H7F      HAL2     0.900000E-01   1.00800           0
     12071 MEMB     104      OSM      H7G      HAL2     0.900000E-01   1.00800           0
     12072 MEMB     104      OSM      C8F      CTL2    -0.180000       12.0110           0
     12073 MEMB     104      OSM      H8F      HAL2     0.900000E-01   1.00800           0
     12074 MEMB     104      OSM      H8G      HAL2     0.900000E-01   1.00800           0
     12075 MEMB     104      OSM      C9F      CEL1    -0.150000       12.0110           0
     12076 MEMB     104      OSM      H9F      HEL1     0.150000       1.00800           0
     12077 MEMB     104      OSM      C10F     CEL1    -0.150000       12.0110           0
     12078 MEMB     104      OSM      H10F     HEL1     0.150000       1.00800           0
     12079 MEMB     104      OSM      C11F     CTL2    -0.180000       12.0110           0
     12080 MEMB     104      OSM      H11F     HAL2     0.900000E-01   1.00800           0
     12081 MEMB     104      OSM      H11G     HAL2     0.900000E-01   1.00800           0
     12082 MEMB     104      OSM      C12F     CTL2    -0.180000       12.0110           0
     12083 MEMB     104      OSM      H12F     HAL2     0.900000E-01   1.00800           0
     12084 MEMB     104      OSM      H12G     HAL2     0.900000E-01   1.00800           0
     12085 MEMB     104      OSM      C13F     CTL2    -0.180000       12.0110           0
     12086 MEMB     104      OSM      H13F     HAL2     0.900000E-01   1.00800           0
     12087 MEMB     104      OSM      H13G     HAL2     0.900000E-01   1.00800           0
     12088 MEMB     104      OSM      C14F     CTL2    -0.180000       12.0110           0
     12089 MEMB     104      OSM      H14F     HAL2     0.900000E-01   1.00800           0
     12090 MEMB     104      OSM      H14G     HAL2     0.900000E-01   1.00800           0
     12091 MEMB     104      OSM      C15F     CTL2    -0.180000       12.0110           0
     12092 MEMB     104      OSM      H15F     HAL2     0.900000E-01   1.00800           0
     12093 MEMB     104      OSM      H15G     HAL2     0.900000E-01   1.00800           0
     12094 MEMB     104      OSM      C16F     CTL2    -0.180000       12.0110           0
     12095 MEMB     104      OSM      H16F     HAL2     0.900000E-01   1.00800           0
     12096 MEMB     104      OSM      H16G     HAL2     0.900000E-01   1.00800           0
     12097 MEMB     104      OSM      C17F     CTL2    -0.180000       12.0110           0
     12098 MEMB     104      OSM      H17F     HAL2     0.900000E-01   1.00800           0
     12099 MEMB     104      OSM      H17G     HAL2     0.900000E-01   1.00800           0
     12100 MEMB     104      OSM      C18F     CTL3    -0.270000       12.0110           0
     12101 MEMB     104      OSM      H18F     HAL3     0.900000E-01   1.00800           0
     12102 MEMB     104      OSM      H18G     HAL3     0.900000E-01   1.00800           0
     12103 MEMB     104      OSM      H18H     HAL3     0.900000E-01   1.00800           0
     12104 MEMB     105      CHL1     C3       CRL1     0.140000       12.0110           0
     12105 MEMB     105      CHL1     H3       HGA1     0.900000E-01   1.00800           0
     12106 MEMB     105      CHL1     O3       OHL     -0.660000       15.9994           0
     12107 MEMB     105      CHL1     H3'      HOL      0.430000       1.00800           0
     12108 MEMB     105      CHL1     C4       CRL2    -0.180000       12.0110           0
     12109 MEMB     105      CHL1     H4A      HGA2     0.900000E-01   1.00800           0
     12110 MEMB     105      CHL1     H4B      HGA2     0.900000E-01   1.00800           0
     12111 MEMB     105      CHL1     C5       CEL1      0.00000       12.0110           0
     12112 MEMB     105      CHL1     C6       CEL1    -0.150000       12.0110           0
     12113 MEMB     105      CHL1     H6       HEL1     0.150000       1.00800           0
     12114 MEMB     105      CHL1     C7       CRL2    -0.180000       12.0110           0
     12115 MEMB     105      CHL1     H7A      HGA2     0.900000E-01   1.00800           0
     12116 MEMB     105      CHL1     H7B      HGA2     0.900000E-01   1.00800           0
     12117 MEMB     105      CHL1     C8       CRL1    -0.900000E-01   12.0110           0
     12118 MEMB     105      CHL1     H8       HGA1     0.900000E-01   1.00800           0
     12119 MEMB     105      CHL1     C14      CRL1    -0.900000E-01   12.0110           0
     12120 MEMB     105      CHL1     H14      HGA1     0.900000E-01   1.00800           0
     12121 MEMB     105      CHL1     C15      CRL2    -0.180000       12.0110           0
     12122 MEMB     105      CHL1     H15A     HGA2     0.900000E-01   1.00800           0
     12123 MEMB     105      CHL1     H15B     HGA2     0.900000E-01   1.00800           0
     12124 MEMB     105      CHL1     C16      CRL2    -0.180000       12.0110           0
     12125 MEMB     105      CHL1     H16A     HGA2     0.900000E-01   1.00800           0
     12126 MEMB     105      CHL1     H16B     HGA2     0.900000E-01   1.00800           0
     12127 MEMB     105      CHL1     C17      CRL1    -0.900000E-01   12.0110           0
     12128 MEMB     105      CHL1     H17      HGA1     0.900000E-01   1.00800           0
     12129 MEMB     105      CHL1     C13      CRL1      0.00000       12.0110           0
     12130 MEMB     105      CHL1     C18      CTL3    -0.270000       12.0110           0
     12131 MEMB     105      CHL1     H18A     HAL3     0.900000E-01   1.00800           0
     12132 MEMB     105      CHL1     H18B     HAL3     0.900000E-01   1.00800           0
     12133 MEMB     105      CHL1     H18C     HAL3     0.900000E-01   1.00800           0
     12134 MEMB     105      CHL1     C12      CRL2    -0.180000       12.0110           0
     12135 MEMB     105      CHL1     H12A     HGA2     0.900000E-01   1.00800           0
     12136 MEMB     105      CHL1     H12B     HGA2     0.900000E-01   1.00800           0
     12137 MEMB     105      CHL1     C11      CRL2    -0.180000       12.0110           0
     12138 MEMB     105      CHL1     H11A     HGA2     0.900000E-01   1.00800           0
     12139 MEMB     105      CHL1     H11B     HGA2     0.900000E-01   1.00800           0
     12140 MEMB     105      CHL1     C9       CRL1    -0.900000E-01   12.0110           0
     12141 MEMB     105      CHL1     H9       HGA1     0.900000E-01   1.00800           0
     12142 MEMB     105      CHL1     C10      CRL1      0.00000       12.0110           0
     12143 MEMB     105      CHL1     C19      CTL3    -0.270000       12.0110           0
     12144 MEMB     105      CHL1     H19A     HAL3     0.900000E-01   1.00800           0
     12145 MEMB     105      CHL1     H19B     HAL3     0.900000E-01   1.00800           0
     12146 MEMB     105      CHL1     H19C     HAL3     0.900000E-01   1.00800           0
     12147 MEMB     105      CHL1     C1       CRL2    -0.180000       12.0110           0
     12148 MEMB     105      CHL1     H1A      HGA2     0.900000E-01   1.00800           0
     12149 MEMB     105      CHL1     H1B      HGA2     0.900000E-01   1.00800           0
     12150 MEMB     105      CHL1     C2       CRL2    -0.180000       12.0110           0
     12151 MEMB     105      CHL1     H2A      HGA2     0.900000E-01   1.00800           0
     12152 MEMB     105      CHL1     H2B      HGA2     0.900000E-01   1.00800           0
     12153 MEMB     105      CHL1     C20      CTL1    -0.900000E-01   12.0110           0
     12154 MEMB     105      CHL1     H20      HAL1     0.900000E-01   1.00800           0
     12155 MEMB     105      CHL1     C21      CTL3    -0.270000       12.0110           0
     12156 MEMB     105      CHL1     H21A     HAL3     0.900000E-01   1.00800           0
     12157 MEMB     105      CHL1     H21B     HAL3     0.900000E-01   1.00800           0
     12158 MEMB     105      CHL1     H21C     HAL3     0.900000E-01   1.00800           0
     12159 MEMB     105      CHL1     C22      CTL2    -0.180000       12.0110           0
     12160 MEMB     105      CHL1     H22A     HAL2     0.900000E-01   1.00800           0
     12161 MEMB     105      CHL1     H22B     HAL2     0.900000E-01   1.00800           0
     12162 MEMB     105      CHL1     C23      CTL2    -0.180000       12.0110           0
     12163 MEMB     105      CHL1     H23A     HAL2     0.900000E-01   1.00800           0
     12164 MEMB     105      CHL1     H23B     HAL2     0.900000E-01   1.00800           0
     12165 MEMB     105      CHL1     C24      CTL2    -0.180000       12.0110           0
     12166 MEMB     105      CHL1     H24A     HAL2     0.900000E-01   1.00800           0
     12167 MEMB     105      CHL1     H24B     HAL2     0.900000E-01   1.00800           0
     12168 MEMB     105      CHL1     C25      CTL1    -0.900000E-01   12.0110           0
     12169 MEMB     105      CHL1     H25      HAL1     0.900000E-01   1.00800           0
     12170 MEMB     105      CHL1     C26      CTL3    -0.270000       12.0110           0
     12171 MEMB     105      CHL1     H26A     HAL3     0.900000E-01   1.00800           0
     12172 MEMB     105      CHL1     H26B     HAL3     0.900000E-01   1.00800           0
     12173 MEMB     105      CHL1     H26C     HAL3     0.900000E-01   1.00800           0
     12174 MEMB     105      CHL1     C27      CTL3    -0.270000       12.0110           0
     12175 MEMB     105      CHL1     H27A     HAL3     0.900000E-01   1.00800           0
     12176 MEMB     105      CHL1     H27B     HAL3     0.900000E-01   1.00800           0
     12177 MEMB     105      CHL1     H27C     HAL3     0.900000E-01   1.00800           0
     12178 MEMB     106      POPC     N        NTL     -0.600000       14.0070           0
     12179 MEMB     106      POPC     C12      CTL2    -0.100000       12.0110           0
     12180 MEMB     106      POPC     H12A     HL       0.250000       1.00800           0
     12181 MEMB     106      POPC     H12B     HL       0.250000       1.00800           0
     12182 MEMB     106      POPC     C13      CTL5    -0.350000       12.0110           0
     12183 MEMB     106      POPC     H13A     HL       0.250000       1.00800           0
     12184 MEMB     106      POPC     H13B     HL       0.250000       1.00800           0
     12185 MEMB     106      POPC     H13C     HL       0.250000       1.00800           0
     12186 MEMB     106      POPC     C14      CTL5    -0.350000       12.0110           0
     12187 MEMB     106      POPC     H14A     HL       0.250000       1.00800           0
     12188 MEMB     106      POPC     H14B     HL       0.250000       1.00800           0
     12189 MEMB     106      POPC     H14C     HL       0.250000       1.00800           0
     12190 MEMB     106      POPC     C15      CTL5    -0.350000       12.0110           0
     12191 MEMB     106      POPC     H15A     HL       0.250000       1.00800           0
     12192 MEMB     106      POPC     H15B     HL       0.250000       1.00800           0
     12193 MEMB     106      POPC     H15C     HL       0.250000       1.00800           0
     12194 MEMB     106      POPC     C11      CTL2    -0.800000E-01   12.0110           0
     12195 MEMB     106      POPC     H11A     HAL2     0.900000E-01   1.00800           0
     12196 MEMB     106      POPC     H11B     HAL2     0.900000E-01   1.00800           0
     12197 MEMB     106      POPC     P        PL        1.50000       30.9740           0
     12198 MEMB     106      POPC     O13      O2L     -0.780000       15.9994           0
     12199 MEMB     106      POPC     O14      O2L     -0.780000       15.9994           0
     12200 MEMB     106      POPC     O12      OSLP    -0.570000       15.9994           0
     12201 MEMB     106      POPC     O11      OSLP    -0.570000       15.9994           0
     12202 MEMB     106      POPC     C1       CTL2    -0.800000E-01   12.0110           0
     12203 MEMB     106      POPC     HA       HAL2     0.900000E-01   1.00800           0
     12204 MEMB     106      POPC     HB       HAL2     0.900000E-01   1.00800           0
     12205 MEMB     106      POPC     C2       CTL1     0.170000       12.0110           0
     12206 MEMB     106      POPC     HS       HAL1     0.900000E-01   1.00800           0
     12207 MEMB     106      POPC     O21      OSL     -0.490000       15.9994           0
     12208 MEMB     106      POPC     C21      CL       0.900000       12.0110           0
     12209 MEMB     106      POPC     O22      OBL     -0.630000       15.9994           0
     12210 MEMB     106      POPC     C22      CTL2    -0.220000       12.0110           0
     12211 MEMB     106      POPC     H2R      HAL2     0.900000E-01   1.00800           0
     12212 MEMB     106      POPC     H2S      HAL2     0.900000E-01   1.00800           0
     12213 MEMB     106      POPC     C3       CTL2     0.800000E-01   12.0110           0
     12214 MEMB     106      POPC     HX       HAL2     0.900000E-01   1.00800           0
     12215 MEMB     106      POPC     HY       HAL2     0.900000E-01   1.00800           0
     12216 MEMB     106      POPC     O31      OSL     -0.490000       15.9994           0
     12217 MEMB     106      POPC     C31      CL       0.900000       12.0110           0
     12218 MEMB     106      POPC     O32      OBL     -0.630000       15.9994           0
     12219 MEMB     106      POPC     C32      CTL2    -0.220000       12.0110           0
     12220 MEMB     106      POPC     H2X      HAL2     0.900000E-01   1.00800           0
     12221 MEMB     106      POPC     H2Y      HAL2     0.900000E-01   1.00800           0
     12222 MEMB     106      POPC     C23      CTL2    -0.180000       12.0110           0
     12223 MEMB     106      POPC     H3R      HAL2     0.900000E-01   1.00800           0
     12224 MEMB     106      POPC     H3S      HAL2     0.900000E-01   1.00800           0
     12225 MEMB     106      POPC     C24      CTL2    -0.180000       12.0110           0
     12226 MEMB     106      POPC     H4R      HAL2     0.900000E-01   1.00800           0
     12227 MEMB     106      POPC     H4S      HAL2     0.900000E-01   1.00800           0
     12228 MEMB     106      POPC     C25      CTL2    -0.180000       12.0110           0
     12229 MEMB     106      POPC     H5R      HAL2     0.900000E-01   1.00800           0
     12230 MEMB     106      POPC     H5S      HAL2     0.900000E-01   1.00800           0
     12231 MEMB     106      POPC     C26      CTL2    -0.180000       12.0110           0
     12232 MEMB     106      POPC     H6R      HAL2     0.900000E-01   1.00800           0
     12233 MEMB     106      POPC     H6S      HAL2     0.900000E-01   1.00800           0
     12234 MEMB     106      POPC     C27      CTL2    -0.180000       12.0110           0
     12235 MEMB     106      POPC     H7R      HAL2     0.900000E-01   1.00800           0
     12236 MEMB     106      POPC     H7S      HAL2     0.900000E-01   1.00800           0
     12237 MEMB     106      POPC     C28      CTL2    -0.180000       12.0110           0
     12238 MEMB     106      POPC     H8R      HAL2     0.900000E-01   1.00800           0
     12239 MEMB     106      POPC     H8S      HAL2     0.900000E-01   1.00800           0
     12240 MEMB     106      POPC     C29      CEL1    -0.150000       12.0110           0
     12241 MEMB     106      POPC     H91      HEL1     0.150000       1.00800           0
     12242 MEMB     106      POPC     C210     CEL1    -0.150000       12.0110           0
     12243 MEMB     106      POPC     H101     HEL1     0.150000       1.00800           0
     12244 MEMB     106      POPC     C211     CTL2    -0.180000       12.0110           0
     12245 MEMB     106      POPC     H11R     HAL2     0.900000E-01   1.00800           0
     12246 MEMB     106      POPC     H11S     HAL2     0.900000E-01   1.00800           0
     12247 MEMB     106      POPC     C212     CTL2    -0.180000       12.0110           0
     12248 MEMB     106      POPC     H12R     HAL2     0.900000E-01   1.00800           0
     12249 MEMB     106      POPC     H12S     HAL2     0.900000E-01   1.00800           0
     12250 MEMB     106      POPC     C213     CTL2    -0.180000       12.0110           0
     12251 MEMB     106      POPC     H13R     HAL2     0.900000E-01   1.00800           0
     12252 MEMB     106      POPC     H13S     HAL2     0.900000E-01   1.00800           0
     12253 MEMB     106      POPC     C214     CTL2    -0.180000       12.0110           0
     12254 MEMB     106      POPC     H14R     HAL2     0.900000E-01   1.00800           0
     12255 MEMB     106      POPC     H14S     HAL2     0.900000E-01   1.00800           0
     12256 MEMB     106      POPC     C215     CTL2    -0.180000       12.0110           0
     12257 MEMB     106      POPC     H15R     HAL2     0.900000E-01   1.00800           0
     12258 MEMB     106      POPC     H15S     HAL2     0.900000E-01   1.00800           0
     12259 MEMB     106      POPC     C216     CTL2    -0.180000       12.0110           0
     12260 MEMB     106      POPC     H16R     HAL2     0.900000E-01   1.00800           0
     12261 MEMB     106      POPC     H16S     HAL2     0.900000E-01   1.00800           0
     12262 MEMB     106      POPC     C217     CTL2    -0.180000       12.0110           0
     12263 MEMB     106      POPC     H17R     HAL2     0.900000E-01   1.00800           0
     12264 MEMB     106      POPC     H17S     HAL2     0.900000E-01   1.00800           0
     12265 MEMB     106      POPC     C218     CTL3    -0.270000       12.0110           0
     12266 MEMB     106      POPC     H18R     HAL3     0.900000E-01   1.00800           0
     12267 MEMB     106      POPC     H18S     HAL3     0.900000E-01   1.00800           0
     12268 MEMB     106      POPC     H18T     HAL3     0.900000E-01   1.00800           0
     12269 MEMB     106      POPC     C33      CTL2    -0.180000       12.0110           0
     12270 MEMB     106      POPC     H3X      HAL2     0.900000E-01   1.00800           0
     12271 MEMB     106      POPC     H3Y      HAL2     0.900000E-01   1.00800           0
     12272 MEMB     106      POPC     C34      CTL2    -0.180000       12.0110           0
     12273 MEMB     106      POPC     H4X      HAL2     0.900000E-01   1.00800           0
     12274 MEMB     106      POPC     H4Y      HAL2     0.900000E-01   1.00800           0
     12275 MEMB     106      POPC     C35      CTL2    -0.180000       12.0110           0
     12276 MEMB     106      POPC     H5X      HAL2     0.900000E-01   1.00800           0
     12277 MEMB     106      POPC     H5Y      HAL2     0.900000E-01   1.00800           0
     12278 MEMB     106      POPC     C36      CTL2    -0.180000       12.0110           0
     12279 MEMB     106      POPC     H6X      HAL2     0.900000E-01   1.00800           0
     12280 MEMB     106      POPC     H6Y      HAL2     0.900000E-01   1.00800           0
     12281 MEMB     106      POPC     C37      CTL2    -0.180000       12.0110           0
     12282 MEMB     106      POPC     H7X      HAL2     0.900000E-01   1.00800           0
     12283 MEMB     106      POPC     H7Y      HAL2     0.900000E-01   1.00800           0
     12284 MEMB     106      POPC     C38      CTL2    -0.180000       12.0110           0
     12285 MEMB     106      POPC     H8X      HAL2     0.900000E-01   1.00800           0
     12286 MEMB     106      POPC     H8Y      HAL2     0.900000E-01   1.00800           0
     12287 MEMB     106      POPC     C39      CTL2    -0.180000       12.0110           0
     12288 MEMB     106      POPC     H9X      HAL2     0.900000E-01   1.00800           0
     12289 MEMB     106      POPC     H9Y      HAL2     0.900000E-01   1.00800           0
     12290 MEMB     106      POPC     C310     CTL2    -0.180000       12.0110           0
     12291 MEMB     106      POPC     H10X     HAL2     0.900000E-01   1.00800           0
     12292 MEMB     106      POPC     H10Y     HAL2     0.900000E-01   1.00800           0
     12293 MEMB     106      POPC     C311     CTL2    -0.180000       12.0110           0
     12294 MEMB     106      POPC     H11X     HAL2     0.900000E-01   1.00800           0
     12295 MEMB     106      POPC     H11Y     HAL2     0.900000E-01   1.00800           0
     12296 MEMB     106      POPC     C312     CTL2    -0.180000       12.0110           0
     12297 MEMB     106      POPC     H12X     HAL2     0.900000E-01   1.00800           0
     12298 MEMB     106      POPC     H12Y     HAL2     0.900000E-01   1.00800           0
     12299 MEMB     106      POPC     C313     CTL2    -0.180000       12.0110           0
     12300 MEMB     106      POPC     H13X     HAL2     0.900000E-01   1.00800           0
     12301 MEMB     106      POPC     H13Y     HAL2     0.900000E-01   1.00800           0
     12302 MEMB     106      POPC     C314     CTL2    -0.180000       12.0110           0
     12303 MEMB     106      POPC     H14X     HAL2     0.900000E-01   1.00800           0
     12304 MEMB     106      POPC     H14Y     HAL2     0.900000E-01   1.00800           0
     12305 MEMB     106      POPC     C315     CTL2    -0.180000       12.0110           0
     12306 MEMB     106      POPC     H15X     HAL2     0.900000E-01   1.00800           0
     12307 MEMB     106      POPC     H15Y     HAL2     0.900000E-01   1.00800           0
     12308 MEMB     106      POPC     C316     CTL3    -0.270000       12.0110           0
     12309 MEMB     106      POPC     H16X     HAL3     0.900000E-01   1.00800           0
     12310 MEMB     106      POPC     H16Y     HAL3     0.900000E-01   1.00800           0
     12311 MEMB     106      POPC     H16Z     HAL3     0.900000E-01   1.00800           0
     12312 MEMB     107      SAPC     N        NTL     -0.600000       14.0070           0
     12313 MEMB     107      SAPC     C12      CTL2    -0.100000       12.0110           0
     12314 MEMB     107      SAPC     H12A     HL       0.250000       1.00800           0
     12315 MEMB     107      SAPC     H12B     HL       0.250000       1.00800           0
     12316 MEMB     107      SAPC     C13      CTL5    -0.350000       12.0110           0
     12317 MEMB     107      SAPC     H13A     HL       0.250000       1.00800           0
     12318 MEMB     107      SAPC     H13B     HL       0.250000       1.00800           0
     12319 MEMB     107      SAPC     H13C     HL       0.250000       1.00800           0
     12320 MEMB     107      SAPC     C14      CTL5    -0.350000       12.0110           0
     12321 MEMB     107      SAPC     H14A     HL       0.250000       1.00800           0
     12322 MEMB     107      SAPC     H14B     HL       0.250000       1.00800           0
     12323 MEMB     107      SAPC     H14C     HL       0.250000       1.00800           0
     12324 MEMB     107      SAPC     C15      CTL5    -0.350000       12.0110           0
     12325 MEMB     107      SAPC     H15A     HL       0.250000       1.00800           0
     12326 MEMB     107      SAPC     H15B     HL       0.250000       1.00800           0
     12327 MEMB     107      SAPC     H15C     HL       0.250000       1.00800           0
     12328 MEMB     107      SAPC     C11      CTL2    -0.800000E-01   12.0110           0
     12329 MEMB     107      SAPC     H11A     HAL2     0.900000E-01   1.00800           0
     12330 MEMB     107      SAPC     H11B     HAL2     0.900000E-01   1.00800           0
     12331 MEMB     107      SAPC     P        PL        1.50000       30.9740           0
     12332 MEMB     107      SAPC     O13      O2L     -0.780000       15.9994           0
     12333 MEMB     107      SAPC     O14      O2L     -0.780000       15.9994           0
     12334 MEMB     107      SAPC     O12      OSLP    -0.570000       15.9994           0
     12335 MEMB     107      SAPC     O11      OSLP    -0.570000       15.9994           0
     12336 MEMB     107      SAPC     C1       CTL2    -0.800000E-01   12.0110           0
     12337 MEMB     107      SAPC     HA       HAL2     0.900000E-01   1.00800           0
     12338 MEMB     107      SAPC     HB       HAL2     0.900000E-01   1.00800           0
     12339 MEMB     107      SAPC     C2       CTL1     0.170000       12.0110           0
     12340 MEMB     107      SAPC     HS       HAL1     0.900000E-01   1.00800           0
     12341 MEMB     107      SAPC     O21      OSL     -0.490000       15.9994           0
     12342 MEMB     107      SAPC     C21      CL       0.900000       12.0110           0
     12343 MEMB     107      SAPC     O22      OBL     -0.630000       15.9994           0
     12344 MEMB     107      SAPC     C22      CTL2    -0.220000       12.0110           0
     12345 MEMB     107      SAPC     H2R      HAL2     0.900000E-01   1.00800           0
     12346 MEMB     107      SAPC     H2S      HAL2     0.900000E-01   1.00800           0
     12347 MEMB     107      SAPC     C3       CTL2     0.800000E-01   12.0110           0
     12348 MEMB     107      SAPC     HX       HAL2     0.900000E-01   1.00800           0
     12349 MEMB     107      SAPC     HY       HAL2     0.900000E-01   1.00800           0
     12350 MEMB     107      SAPC     O31      OSL     -0.490000       15.9994           0
     12351 MEMB     107      SAPC     C31      CL       0.900000       12.0110           0
     12352 MEMB     107      SAPC     O32      OBL     -0.630000       15.9994           0
     12353 MEMB     107      SAPC     C32      CTL2    -0.220000       12.0110           0
     12354 MEMB     107      SAPC     H2X      HAL2     0.900000E-01   1.00800           0
     12355 MEMB     107      SAPC     H2Y      HAL2     0.900000E-01   1.00800           0
     12356 MEMB     107      SAPC     C23      CTL2    -0.180000       12.0110           0
     12357 MEMB     107      SAPC     H3R      HAL2     0.900000E-01   1.00800           0
     12358 MEMB     107      SAPC     H3S      HAL2     0.900000E-01   1.00800           0
     12359 MEMB     107      SAPC     C24      CTL2    -0.180000       12.0110           0
     12360 MEMB     107      SAPC     H4R      HAL2     0.900000E-01   1.00800           0
     12361 MEMB     107      SAPC     H4S      HAL2     0.900000E-01   1.00800           0
     12362 MEMB     107      SAPC     C25      CEL1    -0.150000       12.0110           0
     12363 MEMB     107      SAPC     H5R      HEL1     0.150000       1.00800           0
     12364 MEMB     107      SAPC     C26      CEL1    -0.150000       12.0110           0
     12365 MEMB     107      SAPC     H6R      HEL1     0.150000       1.00800           0
     12366 MEMB     107      SAPC     C27      CTL2    -0.180000       12.0110           0
     12367 MEMB     107      SAPC     H7R      HAL2     0.900000E-01   1.00800           0
     12368 MEMB     107      SAPC     H7S      HAL2     0.900000E-01   1.00800           0
     12369 MEMB     107      SAPC     C28      CEL1    -0.150000       12.0110           0
     12370 MEMB     107      SAPC     H8R      HEL1     0.150000       1.00800           0
     12371 MEMB     107      SAPC     C29      CEL1    -0.150000       12.0110           0
     12372 MEMB     107      SAPC     H9R      HEL1     0.150000       1.00800           0
     12373 MEMB     107      SAPC     C210     CTL2    -0.180000       12.0110           0
     12374 MEMB     107      SAPC     H10R     HAL2     0.900000E-01   1.00800           0
     12375 MEMB     107      SAPC     H10S     HAL2     0.900000E-01   1.00800           0
     12376 MEMB     107      SAPC     C211     CEL1    -0.150000       12.0110           0
     12377 MEMB     107      SAPC     H11R     HEL1     0.150000       1.00800           0
     12378 MEMB     107      SAPC     C212     CEL1    -0.150000       12.0110           0
     12379 MEMB     107      SAPC     H12R     HEL1     0.150000       1.00800           0
     12380 MEMB     107      SAPC     C213     CTL2    -0.180000       12.0110           0
     12381 MEMB     107      SAPC     H13R     HAL2     0.900000E-01   1.00800           0
     12382 MEMB     107      SAPC     H13S     HAL2     0.900000E-01   1.00800           0
     12383 MEMB     107      SAPC     C214     CEL1    -0.150000       12.0110           0
     12384 MEMB     107      SAPC     H14R     HEL1     0.150000       1.00800           0
     12385 MEMB     107      SAPC     C215     CEL1    -0.150000       12.0110           0
     12386 MEMB     107      SAPC     H15R     HEL1     0.150000       1.00800           0
     12387 MEMB     107      SAPC     C216     CTL2    -0.180000       12.0110           0
     12388 MEMB     107      SAPC     H16R     HAL2     0.900000E-01   1.00800           0
     12389 MEMB     107      SAPC     H16S     HAL2     0.900000E-01   1.00800           0
     12390 MEMB     107      SAPC     C217     CTL2    -0.180000       12.0110           0
     12391 MEMB     107      SAPC     H17R     HAL2     0.900000E-01   1.00800           0
     12392 MEMB     107      SAPC     H17S     HAL2     0.900000E-01   1.00800           0
     12393 MEMB     107      SAPC     C218     CTL2    -0.270000       12.0110           0
     12394 MEMB     107      SAPC     H18R     HAL2     0.900000E-01   1.00800           0
     12395 MEMB     107      SAPC     H18S     HAL2     0.900000E-01   1.00800           0
     12396 MEMB     107      SAPC     C219     CTL2    -0.180000       12.0110           0
     12397 MEMB     107      SAPC     H19R     HAL2     0.900000E-01   1.00800           0
     12398 MEMB     107      SAPC     H19S     HAL2     0.900000E-01   1.00800           0
     12399 MEMB     107      SAPC     C220     CTL3    -0.180000       12.0110           0
     12400 MEMB     107      SAPC     H20R     HAL3     0.900000E-01   1.00800           0
     12401 MEMB     107      SAPC     H20S     HAL3     0.900000E-01   1.00800           0
     12402 MEMB     107      SAPC     H20T     HAL3     0.900000E-01   1.00800           0
     12403 MEMB     107      SAPC     C33      CTL2    -0.180000       12.0110           0
     12404 MEMB     107      SAPC     H3X      HAL2     0.900000E-01   1.00800           0
     12405 MEMB     107      SAPC     H3Y      HAL2     0.900000E-01   1.00800           0
     12406 MEMB     107      SAPC     C34      CTL2    -0.180000       12.0110           0
     12407 MEMB     107      SAPC     H4X      HAL2     0.900000E-01   1.00800           0
     12408 MEMB     107      SAPC     H4Y      HAL2     0.900000E-01   1.00800           0
     12409 MEMB     107      SAPC     C35      CTL2    -0.180000       12.0110           0
     12410 MEMB     107      SAPC     H5X      HAL2     0.900000E-01   1.00800           0
     12411 MEMB     107      SAPC     H5Y      HAL2     0.900000E-01   1.00800           0
     12412 MEMB     107      SAPC     C36      CTL2    -0.180000       12.0110           0
     12413 MEMB     107      SAPC     H6X      HAL2     0.900000E-01   1.00800           0
     12414 MEMB     107      SAPC     H6Y      HAL2     0.900000E-01   1.00800           0
     12415 MEMB     107      SAPC     C37      CTL2    -0.180000       12.0110           0
     12416 MEMB     107      SAPC     H7X      HAL2     0.900000E-01   1.00800           0
     12417 MEMB     107      SAPC     H7Y      HAL2     0.900000E-01   1.00800           0
     12418 MEMB     107      SAPC     C38      CTL2    -0.180000       12.0110           0
     12419 MEMB     107      SAPC     H8X      HAL2     0.900000E-01   1.00800           0
     12420 MEMB     107      SAPC     H8Y      HAL2     0.900000E-01   1.00800           0
     12421 MEMB     107      SAPC     C39      CTL2    -0.180000       12.0110           0
     12422 MEMB     107      SAPC     H9X      HAL2     0.900000E-01   1.00800           0
     12423 MEMB     107      SAPC     H9Y      HAL2     0.900000E-01   1.00800           0
     12424 MEMB     107      SAPC     C310     CTL2    -0.180000       12.0110           0
     12425 MEMB     107      SAPC     H10X     HAL2     0.900000E-01   1.00800           0
     12426 MEMB     107      SAPC     H10Y     HAL2     0.900000E-01   1.00800           0
     12427 MEMB     107      SAPC     C311     CTL2    -0.180000       12.0110           0
     12428 MEMB     107      SAPC     H11X     HAL2     0.900000E-01   1.00800           0
     12429 MEMB     107      SAPC     H11Y     HAL2     0.900000E-01   1.00800           0
     12430 MEMB     107      SAPC     C312     CTL2    -0.180000       12.0110           0
     12431 MEMB     107      SAPC     H12X     HAL2     0.900000E-01   1.00800           0
     12432 MEMB     107      SAPC     H12Y     HAL2     0.900000E-01   1.00800           0
     12433 MEMB     107      SAPC     C313     CTL2    -0.180000       12.0110           0
     12434 MEMB     107      SAPC     H13X     HAL2     0.900000E-01   1.00800           0
     12435 MEMB     107      SAPC     H13Y     HAL2     0.900000E-01   1.00800           0
     12436 MEMB     107      SAPC     C314     CTL2    -0.180000       12.0110           0
     12437 MEMB     107      SAPC     H14X     HAL2     0.900000E-01   1.00800           0
     12438 MEMB     107      SAPC     H14Y     HAL2     0.900000E-01   1.00800           0
     12439 MEMB     107      SAPC     C315     CTL2    -0.180000       12.0110           0
     12440 MEMB     107      SAPC     H15X     HAL2     0.900000E-01   1.00800           0
     12441 MEMB     107      SAPC     H15Y     HAL2     0.900000E-01   1.00800           0
     12442 MEMB     107      SAPC     C316     CTL2    -0.180000       12.0110           0
     12443 MEMB     107      SAPC     H16X     HAL2     0.900000E-01   1.00800           0
     12444 MEMB     107      SAPC     H16Y     HAL2     0.900000E-01   1.00800           0
     12445 MEMB     107      SAPC     C317     CTL2    -0.180000       12.0110           0
     12446 MEMB     107      SAPC     H17X     HAL2     0.900000E-01   1.00800           0
     12447 MEMB     107      SAPC     H17Y     HAL2     0.900000E-01   1.00800           0
     12448 MEMB     107      SAPC     C318     CTL3    -0.270000       12.0110           0
     12449 MEMB     107      SAPC     H18X     HAL3     0.900000E-01   1.00800           0
     12450 MEMB     107      SAPC     H18Y     HAL3     0.900000E-01   1.00800           0
     12451 MEMB     107      SAPC     H18Z     HAL3     0.900000E-01   1.00800           0
     12452 MEMB     108      OSM      N        NTL     -0.600000       14.0070           0
     12453 MEMB     108      OSM      C15      CTL5    -0.350000       12.0110           0
     12454 MEMB     108      OSM      H15A     HL       0.250000       1.00800           0
     12455 MEMB     108      OSM      H15B     HL       0.250000       1.00800           0
     12456 MEMB     108      OSM      H15C     HL       0.250000       1.00800           0
     12457 MEMB     108      OSM      C14      CTL5    -0.350000       12.0110           0
     12458 MEMB     108      OSM      H14A     HL       0.250000       1.00800           0
     12459 MEMB     108      OSM      H14B     HL       0.250000       1.00800           0
     12460 MEMB     108      OSM      H14C     HL       0.250000       1.00800           0
     12461 MEMB     108      OSM      C13      CTL5    -0.350000       12.0110           0
     12462 MEMB     108      OSM      H13A     HL       0.250000       1.00800           0
     12463 MEMB     108      OSM      H13B     HL       0.250000       1.00800           0
     12464 MEMB     108      OSM      H13C     HL       0.250000       1.00800           0
     12465 MEMB     108      OSM      C12      CTL2    -0.100000       12.0110           0
     12466 MEMB     108      OSM      H12A     HL       0.250000       1.00800           0
     12467 MEMB     108      OSM      H12B     HL       0.250000       1.00800           0
     12468 MEMB     108      OSM      C11      CTL2    -0.800000E-01   12.0110           0
     12469 MEMB     108      OSM      H11A     HAL2     0.900000E-01   1.00800           0
     12470 MEMB     108      OSM      H11B     HAL2     0.900000E-01   1.00800           0
     12471 MEMB     108      OSM      P        PL        1.50000       30.9740           0
     12472 MEMB     108      OSM      O13      O2L     -0.780000       15.9994           0
     12473 MEMB     108      OSM      O14      O2L     -0.780000       15.9994           0
     12474 MEMB     108      OSM      O11      OSLP    -0.570000       15.9994           0
     12475 MEMB     108      OSM      O12      OSLP    -0.570000       15.9994           0
     12476 MEMB     108      OSM      C1S      CTL2    -0.800000E-01   12.0110           0
     12477 MEMB     108      OSM      H1S      HAL2     0.900000E-01   1.00800           0
     12478 MEMB     108      OSM      H1T      HAL2     0.900000E-01   1.00800           0
     12479 MEMB     108      OSM      NF       NHL     -0.700000       14.0070           0
     12480 MEMB     108      OSM      HNF      H        0.350000       1.00800           0
     12481 MEMB     108      OSM      C2S      CTL1     0.300000       12.0110           0
     12482 MEMB     108      OSM      H2S      HAL1     0.500000E-01   1.00800           0
     12483 MEMB     108      OSM      C3S      CTO1     0.500000       12.0110           0
     12484 MEMB     108      OSM      H3S      HAL1    -0.110000       1.00800           0
     12485 MEMB     108      OSM      O3       OHL     -0.690000       15.9994           0
     12486 MEMB     108      OSM      HO3      HOL      0.300000       1.00800           0
     12487 MEMB     108      OSM      C4S      CEL3    -0.150000       12.0110           0
     12488 MEMB     108      OSM      H4S      HEL1     0.150000       1.00800           0
     12489 MEMB     108      OSM      C5S      CEL3    -0.150000       12.0110           0
     12490 MEMB     108      OSM      H5S      HEL1     0.150000       1.00800           0
     12491 MEMB     108      OSM      C6S      CTL2    -0.180000       12.0110           0
     12492 MEMB     108      OSM      H6S      HAL2     0.900000E-01   1.00800           0
     12493 MEMB     108      OSM      H6T      HAL2     0.900000E-01   1.00800           0
     12494 MEMB     108      OSM      C7S      CTL2    -0.180000       12.0110           0
     12495 MEMB     108      OSM      H7S      HAL2     0.900000E-01   1.00800           0
     12496 MEMB     108      OSM      H7T      HAL2     0.900000E-01   1.00800           0
     12497 MEMB     108      OSM      C8S      CTL2    -0.180000       12.0110           0
     12498 MEMB     108      OSM      H8S      HAL2     0.900000E-01   1.00800           0
     12499 MEMB     108      OSM      H8T      HAL2     0.900000E-01   1.00800           0
     12500 MEMB     108      OSM      C9S      CTL2    -0.180000       12.0110           0
     12501 MEMB     108      OSM      H9S      HAL2     0.900000E-01   1.00800           0
     12502 MEMB     108      OSM      H9T      HAL2     0.900000E-01   1.00800           0
     12503 MEMB     108      OSM      C10S     CTL2    -0.180000       12.0110           0
     12504 MEMB     108      OSM      H10S     HAL2     0.900000E-01   1.00800           0
     12505 MEMB     108      OSM      H10T     HAL2     0.900000E-01   1.00800           0
     12506 MEMB     108      OSM      C11S     CTL2    -0.180000       12.0110           0
     12507 MEMB     108      OSM      H11S     HAL2     0.900000E-01   1.00800           0
     12508 MEMB     108      OSM      H11T     HAL2     0.900000E-01   1.00800           0
     12509 MEMB     108      OSM      C12S     CTL2    -0.180000       12.0110           0
     12510 MEMB     108      OSM      H12S     HAL2     0.900000E-01   1.00800           0
     12511 MEMB     108      OSM      H12T     HAL2     0.900000E-01   1.00800           0
     12512 MEMB     108      OSM      C13S     CTL2    -0.180000       12.0110           0
     12513 MEMB     108      OSM      H13S     HAL2     0.900000E-01   1.00800           0
     12514 MEMB     108      OSM      H13T     HAL2     0.900000E-01   1.00800           0
     12515 MEMB     108      OSM      C14S     CTL2    -0.180000       12.0110           0
     12516 MEMB     108      OSM      H14S     HAL2     0.900000E-01   1.00800           0
     12517 MEMB     108      OSM      H14T     HAL2     0.900000E-01   1.00800           0
     12518 MEMB     108      OSM      C15S     CTL2    -0.180000       12.0110           0
     12519 MEMB     108      OSM      H15S     HAL2     0.900000E-01   1.00800           0
     12520 MEMB     108      OSM      H15T     HAL2     0.900000E-01   1.00800           0
     12521 MEMB     108      OSM      C16S     CTL2    -0.180000       12.0110           0
     12522 MEMB     108      OSM      H16S     HAL2     0.900000E-01   1.00800           0
     12523 MEMB     108      OSM      H16T     HAL2     0.900000E-01   1.00800           0
     12524 MEMB     108      OSM      C17S     CTL2    -0.180000       12.0110           0
     12525 MEMB     108      OSM      H17S     HAL2     0.900000E-01   1.00800           0
     12526 MEMB     108      OSM      H17T     HAL2     0.900000E-01   1.00800           0
     12527 MEMB     108      OSM      C18S     CTL3    -0.270000       12.0110           0
     12528 MEMB     108      OSM      H18S     HAL3     0.900000E-01   1.00800           0
     12529 MEMB     108      OSM      H18T     HAL3     0.900000E-01   1.00800           0
     12530 MEMB     108      OSM      H18U     HAL3     0.900000E-01   1.00800           0
     12531 MEMB     108      OSM      C1F      C        0.550000       12.0110           0
     12532 MEMB     108      OSM      OF       O       -0.600000       15.9994           0
     12533 MEMB     108      OSM      C2F      CTL2    -0.700000E-01   12.0110           0
     12534 MEMB     108      OSM      H2F      HAL2     0.600000E-01   1.00800           0
     12535 MEMB     108      OSM      H2G      HAL2     0.600000E-01   1.00800           0
     12536 MEMB     108      OSM      C3F      CTL2    -0.180000       12.0110           0
     12537 MEMB     108      OSM      H3F      HAL2     0.900000E-01   1.00800           0
     12538 MEMB     108      OSM      H3G      HAL2     0.900000E-01   1.00800           0
     12539 MEMB     108      OSM      C4F      CTL2    -0.180000       12.0110           0
     12540 MEMB     108      OSM      H4F      HAL2     0.900000E-01   1.00800           0
     12541 MEMB     108      OSM      H4G      HAL2     0.900000E-01   1.00800           0
     12542 MEMB     108      OSM      C5F      CTL2    -0.180000       12.0110           0
     12543 MEMB     108      OSM      H5F      HAL2     0.900000E-01   1.00800           0
     12544 MEMB     108      OSM      H5G      HAL2     0.900000E-01   1.00800           0
     12545 MEMB     108      OSM      C6F      CTL2    -0.180000       12.0110           0
     12546 MEMB     108      OSM      H6F      HAL2     0.900000E-01   1.00800           0
     12547 MEMB     108      OSM      H6G      HAL2     0.900000E-01   1.00800           0
     12548 MEMB     108      OSM      C7F      CTL2    -0.180000       12.0110           0
     12549 MEMB     108      OSM      H7F      HAL2     0.900000E-01   1.00800           0
     12550 MEMB     108      OSM      H7G      HAL2     0.900000E-01   1.00800           0
     12551 MEMB     108      OSM      C8F      CTL2    -0.180000       12.0110           0
     12552 MEMB     108      OSM      H8F      HAL2     0.900000E-01   1.00800           0
     12553 MEMB     108      OSM      H8G      HAL2     0.900000E-01   1.00800           0
     12554 MEMB     108      OSM      C9F      CEL1    -0.150000       12.0110           0
     12555 MEMB     108      OSM      H9F      HEL1     0.150000       1.00800           0
     12556 MEMB     108      OSM      C10F     CEL1    -0.150000       12.0110           0
     12557 MEMB     108      OSM      H10F     HEL1     0.150000       1.00800           0
     12558 MEMB     108      OSM      C11F     CTL2    -0.180000       12.0110           0
     12559 MEMB     108      OSM      H11F     HAL2     0.900000E-01   1.00800           0
     12560 MEMB     108      OSM      H11G     HAL2     0.900000E-01   1.00800           0
     12561 MEMB     108      OSM      C12F     CTL2    -0.180000       12.0110           0
     12562 MEMB     108      OSM      H12F     HAL2     0.900000E-01   1.00800           0
     12563 MEMB     108      OSM      H12G     HAL2     0.900000E-01   1.00800           0
     12564 MEMB     108      OSM      C13F     CTL2    -0.180000       12.0110           0
     12565 MEMB     108      OSM      H13F     HAL2     0.900000E-01   1.00800           0
     12566 MEMB     108      OSM      H13G     HAL2     0.900000E-01   1.00800           0
     12567 MEMB     108      OSM      C14F     CTL2    -0.180000       12.0110           0
     12568 MEMB     108      OSM      H14F     HAL2     0.900000E-01   1.00800           0
     12569 MEMB     108      OSM      H14G     HAL2     0.900000E-01   1.00800           0
     12570 MEMB     108      OSM      C15F     CTL2    -0.180000       12.0110           0
     12571 MEMB     108      OSM      H15F     HAL2     0.900000E-01   1.00800           0
     12572 MEMB     108      OSM      H15G     HAL2     0.900000E-01   1.00800           0
     12573 MEMB     108      OSM      C16F     CTL2    -0.180000       12.0110           0
     12574 MEMB     108      OSM      H16F     HAL2     0.900000E-01   1.00800           0
     12575 MEMB     108      OSM      H16G     HAL2     0.900000E-01   1.00800           0
     12576 MEMB     108      OSM      C17F     CTL2    -0.180000       12.0110           0
     12577 MEMB     108      OSM      H17F     HAL2     0.900000E-01   1.00800           0
     12578 MEMB     108      OSM      H17G     HAL2     0.900000E-01   1.00800           0
     12579 MEMB     108      OSM      C18F     CTL3    -0.270000       12.0110           0
     12580 MEMB     108      OSM      H18F     HAL3     0.900000E-01   1.00800           0
     12581 MEMB     108      OSM      H18G     HAL3     0.900000E-01   1.00800           0
     12582 MEMB     108      OSM      H18H     HAL3     0.900000E-01   1.00800           0
     12583 MEMB     109      SAPI     C12      CC3161   0.140000       12.0110           0
     12584 MEMB     109      SAPI     H2       HCA1     0.900000E-01   1.00800           0
     12585 MEMB     109      SAPI     O2       OC311   -0.650000       15.9994           0
     12586 MEMB     109      SAPI     HO2      HCP1     0.420000       1.00800           0
     12587 MEMB     109      SAPI     C13      CC3161   0.140000       12.0110           0
     12588 MEMB     109      SAPI     H3       HCA1     0.900000E-01   1.00800           0
     12589 MEMB     109      SAPI     O3       OC311   -0.650000       15.9994           0
     12590 MEMB     109      SAPI     HO3      HCP1     0.420000       1.00800           0
     12591 MEMB     109      SAPI     C14      CC3161   0.140000       12.0110           0
     12592 MEMB     109      SAPI     H4       HCA1     0.900000E-01   1.00800           0
     12593 MEMB     109      SAPI     O4       OC311   -0.650000       15.9994           0
     12594 MEMB     109      SAPI     HO4      HCP1     0.420000       1.00800           0
     12595 MEMB     109      SAPI     C15      CC3161   0.140000       12.0110           0
     12596 MEMB     109      SAPI     H5       HCA1     0.900000E-01   1.00800           0
     12597 MEMB     109      SAPI     O5       OC311   -0.650000       15.9994           0
     12598 MEMB     109      SAPI     HO5      HCP1     0.420000       1.00800           0
     12599 MEMB     109      SAPI     C16      CC3161   0.140000       12.0110           0
     12600 MEMB     109      SAPI     H6       HCA1     0.900000E-01   1.00800           0
     12601 MEMB     109      SAPI     O6       OC311   -0.650000       15.9994           0
     12602 MEMB     109      SAPI     HO6      HCP1     0.420000       1.00800           0
     12603 MEMB     109      SAPI     C11      CC3161  -0.800000E-01   12.0110           0
     12604 MEMB     109      SAPI     H1       HCA1     0.900000E-01   1.00800           0
     12605 MEMB     109      SAPI     P        PL        1.59000       30.9740           0
     12606 MEMB     109      SAPI     O13      O2L     -0.780000       15.9994           0
     12607 MEMB     109      SAPI     O14      O2L     -0.780000       15.9994           0
     12608 MEMB     109      SAPI     O12      OC30P   -0.570000       15.9994           0
     12609 MEMB     109      SAPI     O11      OSLP    -0.570000       15.9994           0
     12610 MEMB     109      SAPI     C1       CTL2    -0.800000E-01   12.0110           0
     12611 MEMB     109      SAPI     HA       HAL2     0.900000E-01   1.00800           0
     12612 MEMB     109      SAPI     HB       HAL2     0.900000E-01   1.00800           0
     12613 MEMB     109      SAPI     C2       CTL1     0.170000       12.0110           0
     12614 MEMB     109      SAPI     HS       HAL1     0.900000E-01   1.00800           0
     12615 MEMB     109      SAPI     O21      OSL     -0.490000       15.9994           0
     12616 MEMB     109      SAPI     C21      CL       0.900000       12.0110           0
     12617 MEMB     109      SAPI     O22      OBL     -0.630000       15.9994           0
     12618 MEMB     109      SAPI     C22      CTL2    -0.220000       12.0110           0
     12619 MEMB     109      SAPI     H2R      HAL2     0.900000E-01   1.00800           0
     12620 MEMB     109      SAPI     H2S      HAL2     0.900000E-01   1.00800           0
     12621 MEMB     109      SAPI     C3       CTL2     0.800000E-01   12.0110           0
     12622 MEMB     109      SAPI     HX       HAL2     0.900000E-01   1.00800           0
     12623 MEMB     109      SAPI     HY       HAL2     0.900000E-01   1.00800           0
     12624 MEMB     109      SAPI     O31      OSL     -0.490000       15.9994           0
     12625 MEMB     109      SAPI     C31      CL       0.900000       12.0110           0
     12626 MEMB     109      SAPI     O32      OBL     -0.630000       15.9994           0
     12627 MEMB     109      SAPI     C32      CTL2    -0.220000       12.0110           0
     12628 MEMB     109      SAPI     H2X      HAL2     0.900000E-01   1.00800           0
     12629 MEMB     109      SAPI     H2Y      HAL2     0.900000E-01   1.00800           0
     12630 MEMB     109      SAPI     C23      CTL2    -0.180000       12.0110           0
     12631 MEMB     109      SAPI     H3R      HAL2     0.900000E-01   1.00800           0
     12632 MEMB     109      SAPI     H3S      HAL2     0.900000E-01   1.00800           0
     12633 MEMB     109      SAPI     C24      CTL2    -0.180000       12.0110           0
     12634 MEMB     109      SAPI     H4R      HAL2     0.900000E-01   1.00800           0
     12635 MEMB     109      SAPI     H4S      HAL2     0.900000E-01   1.00800           0
     12636 MEMB     109      SAPI     C25      CEL1    -0.150000       12.0110           0
     12637 MEMB     109      SAPI     H5R      HEL1     0.150000       1.00800           0
     12638 MEMB     109      SAPI     C26      CEL1    -0.150000       12.0110           0
     12639 MEMB     109      SAPI     H6R      HEL1     0.150000       1.00800           0
     12640 MEMB     109      SAPI     C27      CTL2    -0.180000       12.0110           0
     12641 MEMB     109      SAPI     H7R      HAL2     0.900000E-01   1.00800           0
     12642 MEMB     109      SAPI     H7S      HAL2     0.900000E-01   1.00800           0
     12643 MEMB     109      SAPI     C28      CEL1    -0.150000       12.0110           0
     12644 MEMB     109      SAPI     H8R      HEL1     0.150000       1.00800           0
     12645 MEMB     109      SAPI     C29      CEL1    -0.150000       12.0110           0
     12646 MEMB     109      SAPI     H9R      HEL1     0.150000       1.00800           0
     12647 MEMB     109      SAPI     C210     CTL2    -0.180000       12.0110           0
     12648 MEMB     109      SAPI     H10R     HAL2     0.900000E-01   1.00800           0
     12649 MEMB     109      SAPI     H10S     HAL2     0.900000E-01   1.00800           0
     12650 MEMB     109      SAPI     C211     CEL1    -0.150000       12.0110           0
     12651 MEMB     109      SAPI     H11R     HEL1     0.150000       1.00800           0
     12652 MEMB     109      SAPI     C212     CEL1    -0.150000       12.0110           0
     12653 MEMB     109      SAPI     H12R     HEL1     0.150000       1.00800           0
     12654 MEMB     109      SAPI     C213     CTL2    -0.180000       12.0110           0
     12655 MEMB     109      SAPI     H13R     HAL2     0.900000E-01   1.00800           0
     12656 MEMB     109      SAPI     H13S     HAL2     0.900000E-01   1.00800           0
     12657 MEMB     109      SAPI     C214     CEL1    -0.150000       12.0110           0
     12658 MEMB     109      SAPI     H14R     HEL1     0.150000       1.00800           0
     12659 MEMB     109      SAPI     C215     CEL1    -0.150000       12.0110           0
     12660 MEMB     109      SAPI     H15R     HEL1     0.150000       1.00800           0
     12661 MEMB     109      SAPI     C216     CTL2    -0.180000       12.0110           0
     12662 MEMB     109      SAPI     H16R     HAL2     0.900000E-01   1.00800           0
     12663 MEMB     109      SAPI     H16S     HAL2     0.900000E-01   1.00800           0
     12664 MEMB     109      SAPI     C217     CTL2    -0.180000       12.0110           0
     12665 MEMB     109      SAPI     H17R     HAL2     0.900000E-01   1.00800           0
     12666 MEMB     109      SAPI     H17S     HAL2     0.900000E-01   1.00800           0
     12667 MEMB     109      SAPI     C218     CTL2    -0.180000       12.0110           0
     12668 MEMB     109      SAPI     H18R     HAL2     0.900000E-01   1.00800           0
     12669 MEMB     109      SAPI     H18S     HAL2     0.900000E-01   1.00800           0
     12670 MEMB     109      SAPI     C219     CTL2    -0.180000       12.0110           0
     12671 MEMB     109      SAPI     H19R     HAL2     0.900000E-01   1.00800           0
     12672 MEMB     109      SAPI     H19S     HAL2     0.900000E-01   1.00800           0
     12673 MEMB     109      SAPI     C220     CTL3    -0.270000       12.0110           0
     12674 MEMB     109      SAPI     H20R     HAL3     0.900000E-01   1.00800           0
     12675 MEMB     109      SAPI     H20S     HAL3     0.900000E-01   1.00800           0
     12676 MEMB     109      SAPI     H20T     HAL3     0.900000E-01   1.00800           0
     12677 MEMB     109      SAPI     C33      CTL2    -0.180000       12.0110           0
     12678 MEMB     109      SAPI     H3X      HAL2     0.900000E-01   1.00800           0
     12679 MEMB     109      SAPI     H3Y      HAL2     0.900000E-01   1.00800           0
     12680 MEMB     109      SAPI     C34      CTL2    -0.180000       12.0110           0
     12681 MEMB     109      SAPI     H4X      HAL2     0.900000E-01   1.00800           0
     12682 MEMB     109      SAPI     H4Y      HAL2     0.900000E-01   1.00800           0
     12683 MEMB     109      SAPI     C35      CTL2    -0.180000       12.0110           0
     12684 MEMB     109      SAPI     H5X      HAL2     0.900000E-01   1.00800           0
     12685 MEMB     109      SAPI     H5Y      HAL2     0.900000E-01   1.00800           0
     12686 MEMB     109      SAPI     C36      CTL2    -0.180000       12.0110           0
     12687 MEMB     109      SAPI     H6X      HAL2     0.900000E-01   1.00800           0
     12688 MEMB     109      SAPI     H6Y      HAL2     0.900000E-01   1.00800           0
     12689 MEMB     109      SAPI     C37      CTL2    -0.180000       12.0110           0
     12690 MEMB     109      SAPI     H7X      HAL2     0.900000E-01   1.00800           0
     12691 MEMB     109      SAPI     H7Y      HAL2     0.900000E-01   1.00800           0
     12692 MEMB     109      SAPI     C38      CTL2    -0.180000       12.0110           0
     12693 MEMB     109      SAPI     H8X      HAL2     0.900000E-01   1.00800           0
     12694 MEMB     109      SAPI     H8Y      HAL2     0.900000E-01   1.00800           0
     12695 MEMB     109      SAPI     C39      CTL2    -0.180000       12.0110           0
     12696 MEMB     109      SAPI     H9X      HAL2     0.900000E-01   1.00800           0
     12697 MEMB     109      SAPI     H9Y      HAL2     0.900000E-01   1.00800           0
     12698 MEMB     109      SAPI     C310     CTL2    -0.180000       12.0110           0
     12699 MEMB     109      SAPI     H10X     HAL2     0.900000E-01   1.00800           0
     12700 MEMB     109      SAPI     H10Y     HAL2     0.900000E-01   1.00800           0
     12701 MEMB     109      SAPI     C311     CTL2    -0.180000       12.0110           0
     12702 MEMB     109      SAPI     H11X     HAL2     0.900000E-01   1.00800           0
     12703 MEMB     109      SAPI     H11Y     HAL2     0.900000E-01   1.00800           0
     12704 MEMB     109      SAPI     C312     CTL2    -0.180000       12.0110           0
     12705 MEMB     109      SAPI     H12X     HAL2     0.900000E-01   1.00800           0
     12706 MEMB     109      SAPI     H12Y     HAL2     0.900000E-01   1.00800           0
     12707 MEMB     109      SAPI     C313     CTL2    -0.180000       12.0110           0
     12708 MEMB     109      SAPI     H13X     HAL2     0.900000E-01   1.00800           0
     12709 MEMB     109      SAPI     H13Y     HAL2     0.900000E-01   1.00800           0
     12710 MEMB     109      SAPI     C314     CTL2    -0.180000       12.0110           0
     12711 MEMB     109      SAPI     H14X     HAL2     0.900000E-01   1.00800           0
     12712 MEMB     109      SAPI     H14Y     HAL2     0.900000E-01   1.00800           0
     12713 MEMB     109      SAPI     C315     CTL2    -0.180000       12.0110           0
     12714 MEMB     109      SAPI     H15X     HAL2     0.900000E-01   1.00800           0
     12715 MEMB     109      SAPI     H15Y     HAL2     0.900000E-01   1.00800           0
     12716 MEMB     109      SAPI     C316     CTL2    -0.180000       12.0110           0
     12717 MEMB     109      SAPI     H16X     HAL2     0.900000E-01   1.00800           0
     12718 MEMB     109      SAPI     H16Y     HAL2     0.900000E-01   1.00800           0
     12719 MEMB     109      SAPI     C317     CTL2    -0.180000       12.0110           0
     12720 MEMB     109      SAPI     H17X     HAL2     0.900000E-01   1.00800           0
     12721 MEMB     109      SAPI     H17Y     HAL2     0.900000E-01   1.00800           0
     12722 MEMB     109      SAPI     C318     CTL3    -0.270000       12.0110           0
     12723 MEMB     109      SAPI     H18X     HAL3     0.900000E-01   1.00800           0
     12724 MEMB     109      SAPI     H18Y     HAL3     0.900000E-01   1.00800           0
     12725 MEMB     109      SAPI     H18Z     HAL3     0.900000E-01   1.00800           0
     12726 MEMB     110      OSM      N        NTL     -0.600000       14.0070           0
     12727 MEMB     110      OSM      C15      CTL5    -0.350000       12.0110           0
     12728 MEMB     110      OSM      H15A     HL       0.250000       1.00800           0
     12729 MEMB     110      OSM      H15B     HL       0.250000       1.00800           0
     12730 MEMB     110      OSM      H15C     HL       0.250000       1.00800           0
     12731 MEMB     110      OSM      C14      CTL5    -0.350000       12.0110           0
     12732 MEMB     110      OSM      H14A     HL       0.250000       1.00800           0
     12733 MEMB     110      OSM      H14B     HL       0.250000       1.00800           0
     12734 MEMB     110      OSM      H14C     HL       0.250000       1.00800           0
     12735 MEMB     110      OSM      C13      CTL5    -0.350000       12.0110           0
     12736 MEMB     110      OSM      H13A     HL       0.250000       1.00800           0
     12737 MEMB     110      OSM      H13B     HL       0.250000       1.00800           0
     12738 MEMB     110      OSM      H13C     HL       0.250000       1.00800           0
     12739 MEMB     110      OSM      C12      CTL2    -0.100000       12.0110           0
     12740 MEMB     110      OSM      H12A     HL       0.250000       1.00800           0
     12741 MEMB     110      OSM      H12B     HL       0.250000       1.00800           0
     12742 MEMB     110      OSM      C11      CTL2    -0.800000E-01   12.0110           0
     12743 MEMB     110      OSM      H11A     HAL2     0.900000E-01   1.00800           0
     12744 MEMB     110      OSM      H11B     HAL2     0.900000E-01   1.00800           0
     12745 MEMB     110      OSM      P        PL        1.50000       30.9740           0
     12746 MEMB     110      OSM      O13      O2L     -0.780000       15.9994           0
     12747 MEMB     110      OSM      O14      O2L     -0.780000       15.9994           0
     12748 MEMB     110      OSM      O11      OSLP    -0.570000       15.9994           0
     12749 MEMB     110      OSM      O12      OSLP    -0.570000       15.9994           0
     12750 MEMB     110      OSM      C1S      CTL2    -0.800000E-01   12.0110           0
     12751 MEMB     110      OSM      H1S      HAL2     0.900000E-01   1.00800           0
     12752 MEMB     110      OSM      H1T      HAL2     0.900000E-01   1.00800           0
     12753 MEMB     110      OSM      NF       NHL     -0.700000       14.0070           0
     12754 MEMB     110      OSM      HNF      H        0.350000       1.00800           0
     12755 MEMB     110      OSM      C2S      CTL1     0.300000       12.0110           0
     12756 MEMB     110      OSM      H2S      HAL1     0.500000E-01   1.00800           0
     12757 MEMB     110      OSM      C3S      CTO1     0.500000       12.0110           0
     12758 MEMB     110      OSM      H3S      HAL1    -0.110000       1.00800           0
     12759 MEMB     110      OSM      O3       OHL     -0.690000       15.9994           0
     12760 MEMB     110      OSM      HO3      HOL      0.300000       1.00800           0
     12761 MEMB     110      OSM      C4S      CEL3    -0.150000       12.0110           0
     12762 MEMB     110      OSM      H4S      HEL1     0.150000       1.00800           0
     12763 MEMB     110      OSM      C5S      CEL3    -0.150000       12.0110           0
     12764 MEMB     110      OSM      H5S      HEL1     0.150000       1.00800           0
     12765 MEMB     110      OSM      C6S      CTL2    -0.180000       12.0110           0
     12766 MEMB     110      OSM      H6S      HAL2     0.900000E-01   1.00800           0
     12767 MEMB     110      OSM      H6T      HAL2     0.900000E-01   1.00800           0
     12768 MEMB     110      OSM      C7S      CTL2    -0.180000       12.0110           0
     12769 MEMB     110      OSM      H7S      HAL2     0.900000E-01   1.00800           0
     12770 MEMB     110      OSM      H7T      HAL2     0.900000E-01   1.00800           0
     12771 MEMB     110      OSM      C8S      CTL2    -0.180000       12.0110           0
     12772 MEMB     110      OSM      H8S      HAL2     0.900000E-01   1.00800           0
     12773 MEMB     110      OSM      H8T      HAL2     0.900000E-01   1.00800           0
     12774 MEMB     110      OSM      C9S      CTL2    -0.180000       12.0110           0
     12775 MEMB     110      OSM      H9S      HAL2     0.900000E-01   1.00800           0
     12776 MEMB     110      OSM      H9T      HAL2     0.900000E-01   1.00800           0
     12777 MEMB     110      OSM      C10S     CTL2    -0.180000       12.0110           0
     12778 MEMB     110      OSM      H10S     HAL2     0.900000E-01   1.00800           0
     12779 MEMB     110      OSM      H10T     HAL2     0.900000E-01   1.00800           0
     12780 MEMB     110      OSM      C11S     CTL2    -0.180000       12.0110           0
     12781 MEMB     110      OSM      H11S     HAL2     0.900000E-01   1.00800           0
     12782 MEMB     110      OSM      H11T     HAL2     0.900000E-01   1.00800           0
     12783 MEMB     110      OSM      C12S     CTL2    -0.180000       12.0110           0
     12784 MEMB     110      OSM      H12S     HAL2     0.900000E-01   1.00800           0
     12785 MEMB     110      OSM      H12T     HAL2     0.900000E-01   1.00800           0
     12786 MEMB     110      OSM      C13S     CTL2    -0.180000       12.0110           0
     12787 MEMB     110      OSM      H13S     HAL2     0.900000E-01   1.00800           0
     12788 MEMB     110      OSM      H13T     HAL2     0.900000E-01   1.00800           0
     12789 MEMB     110      OSM      C14S     CTL2    -0.180000       12.0110           0
     12790 MEMB     110      OSM      H14S     HAL2     0.900000E-01   1.00800           0
     12791 MEMB     110      OSM      H14T     HAL2     0.900000E-01   1.00800           0
     12792 MEMB     110      OSM      C15S     CTL2    -0.180000       12.0110           0
     12793 MEMB     110      OSM      H15S     HAL2     0.900000E-01   1.00800           0
     12794 MEMB     110      OSM      H15T     HAL2     0.900000E-01   1.00800           0
     12795 MEMB     110      OSM      C16S     CTL2    -0.180000       12.0110           0
     12796 MEMB     110      OSM      H16S     HAL2     0.900000E-01   1.00800           0
     12797 MEMB     110      OSM      H16T     HAL2     0.900000E-01   1.00800           0
     12798 MEMB     110      OSM      C17S     CTL2    -0.180000       12.0110           0
     12799 MEMB     110      OSM      H17S     HAL2     0.900000E-01   1.00800           0
     12800 MEMB     110      OSM      H17T     HAL2     0.900000E-01   1.00800           0
     12801 MEMB     110      OSM      C18S     CTL3    -0.270000       12.0110           0
     12802 MEMB     110      OSM      H18S     HAL3     0.900000E-01   1.00800           0
     12803 MEMB     110      OSM      H18T     HAL3     0.900000E-01   1.00800           0
     12804 MEMB     110      OSM      H18U     HAL3     0.900000E-01   1.00800           0
     12805 MEMB     110      OSM      C1F      C        0.550000       12.0110           0
     12806 MEMB     110      OSM      OF       O       -0.600000       15.9994           0
     12807 MEMB     110      OSM      C2F      CTL2    -0.700000E-01   12.0110           0
     12808 MEMB     110      OSM      H2F      HAL2     0.600000E-01   1.00800           0
     12809 MEMB     110      OSM      H2G      HAL2     0.600000E-01   1.00800           0
     12810 MEMB     110      OSM      C3F      CTL2    -0.180000       12.0110           0
     12811 MEMB     110      OSM      H3F      HAL2     0.900000E-01   1.00800           0
     12812 MEMB     110      OSM      H3G      HAL2     0.900000E-01   1.00800           0
     12813 MEMB     110      OSM      C4F      CTL2    -0.180000       12.0110           0
     12814 MEMB     110      OSM      H4F      HAL2     0.900000E-01   1.00800           0
     12815 MEMB     110      OSM      H4G      HAL2     0.900000E-01   1.00800           0
     12816 MEMB     110      OSM      C5F      CTL2    -0.180000       12.0110           0
     12817 MEMB     110      OSM      H5F      HAL2     0.900000E-01   1.00800           0
     12818 MEMB     110      OSM      H5G      HAL2     0.900000E-01   1.00800           0
     12819 MEMB     110      OSM      C6F      CTL2    -0.180000       12.0110           0
     12820 MEMB     110      OSM      H6F      HAL2     0.900000E-01   1.00800           0
     12821 MEMB     110      OSM      H6G      HAL2     0.900000E-01   1.00800           0
     12822 MEMB     110      OSM      C7F      CTL2    -0.180000       12.0110           0
     12823 MEMB     110      OSM      H7F      HAL2     0.900000E-01   1.00800           0
     12824 MEMB     110      OSM      H7G      HAL2     0.900000E-01   1.00800           0
     12825 MEMB     110      OSM      C8F      CTL2    -0.180000       12.0110           0
     12826 MEMB     110      OSM      H8F      HAL2     0.900000E-01   1.00800           0
     12827 MEMB     110      OSM      H8G      HAL2     0.900000E-01   1.00800           0
     12828 MEMB     110      OSM      C9F      CEL1    -0.150000       12.0110           0
     12829 MEMB     110      OSM      H9F      HEL1     0.150000       1.00800           0
     12830 MEMB     110      OSM      C10F     CEL1    -0.150000       12.0110           0
     12831 MEMB     110      OSM      H10F     HEL1     0.150000       1.00800           0
     12832 MEMB     110      OSM      C11F     CTL2    -0.180000       12.0110           0
     12833 MEMB     110      OSM      H11F     HAL2     0.900000E-01   1.00800           0
     12834 MEMB     110      OSM      H11G     HAL2     0.900000E-01   1.00800           0
     12835 MEMB     110      OSM      C12F     CTL2    -0.180000       12.0110           0
     12836 MEMB     110      OSM      H12F     HAL2     0.900000E-01   1.00800           0
     12837 MEMB     110      OSM      H12G     HAL2     0.900000E-01   1.00800           0
     12838 MEMB     110      OSM      C13F     CTL2    -0.180000       12.0110           0
     12839 MEMB     110      OSM      H13F     HAL2     0.900000E-01   1.00800           0
     12840 MEMB     110      OSM      H13G     HAL2     0.900000E-01   1.00800           0
     12841 MEMB     110      OSM      C14F     CTL2    -0.180000       12.0110           0
     12842 MEMB     110      OSM      H14F     HAL2     0.900000E-01   1.00800           0
     12843 MEMB     110      OSM      H14G     HAL2     0.900000E-01   1.00800           0
     12844 MEMB     110      OSM      C15F     CTL2    -0.180000       12.0110           0
     12845 MEMB     110      OSM      H15F     HAL2     0.900000E-01   1.00800           0
     12846 MEMB     110      OSM      H15G     HAL2     0.900000E-01   1.00800           0
     12847 MEMB     110      OSM      C16F     CTL2    -0.180000       12.0110           0
     12848 MEMB     110      OSM      H16F     HAL2     0.900000E-01   1.00800           0
     12849 MEMB     110      OSM      H16G     HAL2     0.900000E-01   1.00800           0
     12850 MEMB     110      OSM      C17F     CTL2    -0.180000       12.0110           0
     12851 MEMB     110      OSM      H17F     HAL2     0.900000E-01   1.00800           0
     12852 MEMB     110      OSM      H17G     HAL2     0.900000E-01   1.00800           0
     12853 MEMB     110      OSM      C18F     CTL3    -0.270000       12.0110           0
     12854 MEMB     110      OSM      H18F     HAL3     0.900000E-01   1.00800           0
     12855 MEMB     110      OSM      H18G     HAL3     0.900000E-01   1.00800           0
     12856 MEMB     110      OSM      H18H     HAL3     0.900000E-01   1.00800           0
     12857 MEMB     111      POPC     N        NTL     -0.600000       14.0070           0
     12858 MEMB     111      POPC     C12      CTL2    -0.100000       12.0110           0
     12859 MEMB     111      POPC     H12A     HL       0.250000       1.00800           0
     12860 MEMB     111      POPC     H12B     HL       0.250000       1.00800           0
     12861 MEMB     111      POPC     C13      CTL5    -0.350000       12.0110           0
     12862 MEMB     111      POPC     H13A     HL       0.250000       1.00800           0
     12863 MEMB     111      POPC     H13B     HL       0.250000       1.00800           0
     12864 MEMB     111      POPC     H13C     HL       0.250000       1.00800           0
     12865 MEMB     111      POPC     C14      CTL5    -0.350000       12.0110           0
     12866 MEMB     111      POPC     H14A     HL       0.250000       1.00800           0
     12867 MEMB     111      POPC     H14B     HL       0.250000       1.00800           0
     12868 MEMB     111      POPC     H14C     HL       0.250000       1.00800           0
     12869 MEMB     111      POPC     C15      CTL5    -0.350000       12.0110           0
     12870 MEMB     111      POPC     H15A     HL       0.250000       1.00800           0
     12871 MEMB     111      POPC     H15B     HL       0.250000       1.00800           0
     12872 MEMB     111      POPC     H15C     HL       0.250000       1.00800           0
     12873 MEMB     111      POPC     C11      CTL2    -0.800000E-01   12.0110           0
     12874 MEMB     111      POPC     H11A     HAL2     0.900000E-01   1.00800           0
     12875 MEMB     111      POPC     H11B     HAL2     0.900000E-01   1.00800           0
     12876 MEMB     111      POPC     P        PL        1.50000       30.9740           0
     12877 MEMB     111      POPC     O13      O2L     -0.780000       15.9994           0
     12878 MEMB     111      POPC     O14      O2L     -0.780000       15.9994           0
     12879 MEMB     111      POPC     O12      OSLP    -0.570000       15.9994           0
     12880 MEMB     111      POPC     O11      OSLP    -0.570000       15.9994           0
     12881 MEMB     111      POPC     C1       CTL2    -0.800000E-01   12.0110           0
     12882 MEMB     111      POPC     HA       HAL2     0.900000E-01   1.00800           0
     12883 MEMB     111      POPC     HB       HAL2     0.900000E-01   1.00800           0
     12884 MEMB     111      POPC     C2       CTL1     0.170000       12.0110           0
     12885 MEMB     111      POPC     HS       HAL1     0.900000E-01   1.00800           0
     12886 MEMB     111      POPC     O21      OSL     -0.490000       15.9994           0
     12887 MEMB     111      POPC     C21      CL       0.900000       12.0110           0
     12888 MEMB     111      POPC     O22      OBL     -0.630000       15.9994           0
     12889 MEMB     111      POPC     C22      CTL2    -0.220000       12.0110           0
     12890 MEMB     111      POPC     H2R      HAL2     0.900000E-01   1.00800           0
     12891 MEMB     111      POPC     H2S      HAL2     0.900000E-01   1.00800           0
     12892 MEMB     111      POPC     C3       CTL2     0.800000E-01   12.0110           0
     12893 MEMB     111      POPC     HX       HAL2     0.900000E-01   1.00800           0
     12894 MEMB     111      POPC     HY       HAL2     0.900000E-01   1.00800           0
     12895 MEMB     111      POPC     O31      OSL     -0.490000       15.9994           0
     12896 MEMB     111      POPC     C31      CL       0.900000       12.0110           0
     12897 MEMB     111      POPC     O32      OBL     -0.630000       15.9994           0
     12898 MEMB     111      POPC     C32      CTL2    -0.220000       12.0110           0
     12899 MEMB     111      POPC     H2X      HAL2     0.900000E-01   1.00800           0
     12900 MEMB     111      POPC     H2Y      HAL2     0.900000E-01   1.00800           0
     12901 MEMB     111      POPC     C23      CTL2    -0.180000       12.0110           0
     12902 MEMB     111      POPC     H3R      HAL2     0.900000E-01   1.00800           0
     12903 MEMB     111      POPC     H3S      HAL2     0.900000E-01   1.00800           0
     12904 MEMB     111      POPC     C24      CTL2    -0.180000       12.0110           0
     12905 MEMB     111      POPC     H4R      HAL2     0.900000E-01   1.00800           0
     12906 MEMB     111      POPC     H4S      HAL2     0.900000E-01   1.00800           0
     12907 MEMB     111      POPC     C25      CTL2    -0.180000       12.0110           0
     12908 MEMB     111      POPC     H5R      HAL2     0.900000E-01   1.00800           0
     12909 MEMB     111      POPC     H5S      HAL2     0.900000E-01   1.00800           0
     12910 MEMB     111      POPC     C26      CTL2    -0.180000       12.0110           0
     12911 MEMB     111      POPC     H6R      HAL2     0.900000E-01   1.00800           0
     12912 MEMB     111      POPC     H6S      HAL2     0.900000E-01   1.00800           0
     12913 MEMB     111      POPC     C27      CTL2    -0.180000       12.0110           0
     12914 MEMB     111      POPC     H7R      HAL2     0.900000E-01   1.00800           0
     12915 MEMB     111      POPC     H7S      HAL2     0.900000E-01   1.00800           0
     12916 MEMB     111      POPC     C28      CTL2    -0.180000       12.0110           0
     12917 MEMB     111      POPC     H8R      HAL2     0.900000E-01   1.00800           0
     12918 MEMB     111      POPC     H8S      HAL2     0.900000E-01   1.00800           0
     12919 MEMB     111      POPC     C29      CEL1    -0.150000       12.0110           0
     12920 MEMB     111      POPC     H91      HEL1     0.150000       1.00800           0
     12921 MEMB     111      POPC     C210     CEL1    -0.150000       12.0110           0
     12922 MEMB     111      POPC     H101     HEL1     0.150000       1.00800           0
     12923 MEMB     111      POPC     C211     CTL2    -0.180000       12.0110           0
     12924 MEMB     111      POPC     H11R     HAL2     0.900000E-01   1.00800           0
     12925 MEMB     111      POPC     H11S     HAL2     0.900000E-01   1.00800           0
     12926 MEMB     111      POPC     C212     CTL2    -0.180000       12.0110           0
     12927 MEMB     111      POPC     H12R     HAL2     0.900000E-01   1.00800           0
     12928 MEMB     111      POPC     H12S     HAL2     0.900000E-01   1.00800           0
     12929 MEMB     111      POPC     C213     CTL2    -0.180000       12.0110           0
     12930 MEMB     111      POPC     H13R     HAL2     0.900000E-01   1.00800           0
     12931 MEMB     111      POPC     H13S     HAL2     0.900000E-01   1.00800           0
     12932 MEMB     111      POPC     C214     CTL2    -0.180000       12.0110           0
     12933 MEMB     111      POPC     H14R     HAL2     0.900000E-01   1.00800           0
     12934 MEMB     111      POPC     H14S     HAL2     0.900000E-01   1.00800           0
     12935 MEMB     111      POPC     C215     CTL2    -0.180000       12.0110           0
     12936 MEMB     111      POPC     H15R     HAL2     0.900000E-01   1.00800           0
     12937 MEMB     111      POPC     H15S     HAL2     0.900000E-01   1.00800           0
     12938 MEMB     111      POPC     C216     CTL2    -0.180000       12.0110           0
     12939 MEMB     111      POPC     H16R     HAL2     0.900000E-01   1.00800           0
     12940 MEMB     111      POPC     H16S     HAL2     0.900000E-01   1.00800           0
     12941 MEMB     111      POPC     C217     CTL2    -0.180000       12.0110           0
     12942 MEMB     111      POPC     H17R     HAL2     0.900000E-01   1.00800           0
     12943 MEMB     111      POPC     H17S     HAL2     0.900000E-01   1.00800           0
     12944 MEMB     111      POPC     C218     CTL3    -0.270000       12.0110           0
     12945 MEMB     111      POPC     H18R     HAL3     0.900000E-01   1.00800           0
     12946 MEMB     111      POPC     H18S     HAL3     0.900000E-01   1.00800           0
     12947 MEMB     111      POPC     H18T     HAL3     0.900000E-01   1.00800           0
     12948 MEMB     111      POPC     C33      CTL2    -0.180000       12.0110           0
     12949 MEMB     111      POPC     H3X      HAL2     0.900000E-01   1.00800           0
     12950 MEMB     111      POPC     H3Y      HAL2     0.900000E-01   1.00800           0
     12951 MEMB     111      POPC     C34      CTL2    -0.180000       12.0110           0
     12952 MEMB     111      POPC     H4X      HAL2     0.900000E-01   1.00800           0
     12953 MEMB     111      POPC     H4Y      HAL2     0.900000E-01   1.00800           0
     12954 MEMB     111      POPC     C35      CTL2    -0.180000       12.0110           0
     12955 MEMB     111      POPC     H5X      HAL2     0.900000E-01   1.00800           0
     12956 MEMB     111      POPC     H5Y      HAL2     0.900000E-01   1.00800           0
     12957 MEMB     111      POPC     C36      CTL2    -0.180000       12.0110           0
     12958 MEMB     111      POPC     H6X      HAL2     0.900000E-01   1.00800           0
     12959 MEMB     111      POPC     H6Y      HAL2     0.900000E-01   1.00800           0
     12960 MEMB     111      POPC     C37      CTL2    -0.180000       12.0110           0
     12961 MEMB     111      POPC     H7X      HAL2     0.900000E-01   1.00800           0
     12962 MEMB     111      POPC     H7Y      HAL2     0.900000E-01   1.00800           0
     12963 MEMB     111      POPC     C38      CTL2    -0.180000       12.0110           0
     12964 MEMB     111      POPC     H8X      HAL2     0.900000E-01   1.00800           0
     12965 MEMB     111      POPC     H8Y      HAL2     0.900000E-01   1.00800           0
     12966 MEMB     111      POPC     C39      CTL2    -0.180000       12.0110           0
     12967 MEMB     111      POPC     H9X      HAL2     0.900000E-01   1.00800           0
     12968 MEMB     111      POPC     H9Y      HAL2     0.900000E-01   1.00800           0
     12969 MEMB     111      POPC     C310     CTL2    -0.180000       12.0110           0
     12970 MEMB     111      POPC     H10X     HAL2     0.900000E-01   1.00800           0
     12971 MEMB     111      POPC     H10Y     HAL2     0.900000E-01   1.00800           0
     12972 MEMB     111      POPC     C311     CTL2    -0.180000       12.0110           0
     12973 MEMB     111      POPC     H11X     HAL2     0.900000E-01   1.00800           0
     12974 MEMB     111      POPC     H11Y     HAL2     0.900000E-01   1.00800           0
     12975 MEMB     111      POPC     C312     CTL2    -0.180000       12.0110           0
     12976 MEMB     111      POPC     H12X     HAL2     0.900000E-01   1.00800           0
     12977 MEMB     111      POPC     H12Y     HAL2     0.900000E-01   1.00800           0
     12978 MEMB     111      POPC     C313     CTL2    -0.180000       12.0110           0
     12979 MEMB     111      POPC     H13X     HAL2     0.900000E-01   1.00800           0
     12980 MEMB     111      POPC     H13Y     HAL2     0.900000E-01   1.00800           0
     12981 MEMB     111      POPC     C314     CTL2    -0.180000       12.0110           0
     12982 MEMB     111      POPC     H14X     HAL2     0.900000E-01   1.00800           0
     12983 MEMB     111      POPC     H14Y     HAL2     0.900000E-01   1.00800           0
     12984 MEMB     111      POPC     C315     CTL2    -0.180000       12.0110           0
     12985 MEMB     111      POPC     H15X     HAL2     0.900000E-01   1.00800           0
     12986 MEMB     111      POPC     H15Y     HAL2     0.900000E-01   1.00800           0
     12987 MEMB     111      POPC     C316     CTL3    -0.270000       12.0110           0
     12988 MEMB     111      POPC     H16X     HAL3     0.900000E-01   1.00800           0
     12989 MEMB     111      POPC     H16Y     HAL3     0.900000E-01   1.00800           0
     12990 MEMB     111      POPC     H16Z     HAL3     0.900000E-01   1.00800           0
     12991 MEMB     112      SAPC     N        NTL     -0.600000       14.0070           0
     12992 MEMB     112      SAPC     C12      CTL2    -0.100000       12.0110           0
     12993 MEMB     112      SAPC     H12A     HL       0.250000       1.00800           0
     12994 MEMB     112      SAPC     H12B     HL       0.250000       1.00800           0
     12995 MEMB     112      SAPC     C13      CTL5    -0.350000       12.0110           0
     12996 MEMB     112      SAPC     H13A     HL       0.250000       1.00800           0
     12997 MEMB     112      SAPC     H13B     HL       0.250000       1.00800           0
     12998 MEMB     112      SAPC     H13C     HL       0.250000       1.00800           0
     12999 MEMB     112      SAPC     C14      CTL5    -0.350000       12.0110           0
     13000 MEMB     112      SAPC     H14A     HL       0.250000       1.00800           0
     13001 MEMB     112      SAPC     H14B     HL       0.250000       1.00800           0
     13002 MEMB     112      SAPC     H14C     HL       0.250000       1.00800           0
     13003 MEMB     112      SAPC     C15      CTL5    -0.350000       12.0110           0
     13004 MEMB     112      SAPC     H15A     HL       0.250000       1.00800           0
     13005 MEMB     112      SAPC     H15B     HL       0.250000       1.00800           0
     13006 MEMB     112      SAPC     H15C     HL       0.250000       1.00800           0
     13007 MEMB     112      SAPC     C11      CTL2    -0.800000E-01   12.0110           0
     13008 MEMB     112      SAPC     H11A     HAL2     0.900000E-01   1.00800           0
     13009 MEMB     112      SAPC     H11B     HAL2     0.900000E-01   1.00800           0
     13010 MEMB     112      SAPC     P        PL        1.50000       30.9740           0
     13011 MEMB     112      SAPC     O13      O2L     -0.780000       15.9994           0
     13012 MEMB     112      SAPC     O14      O2L     -0.780000       15.9994           0
     13013 MEMB     112      SAPC     O12      OSLP    -0.570000       15.9994           0
     13014 MEMB     112      SAPC     O11      OSLP    -0.570000       15.9994           0
     13015 MEMB     112      SAPC     C1       CTL2    -0.800000E-01   12.0110           0
     13016 MEMB     112      SAPC     HA       HAL2     0.900000E-01   1.00800           0
     13017 MEMB     112      SAPC     HB       HAL2     0.900000E-01   1.00800           0
     13018 MEMB     112      SAPC     C2       CTL1     0.170000       12.0110           0
     13019 MEMB     112      SAPC     HS       HAL1     0.900000E-01   1.00800           0
     13020 MEMB     112      SAPC     O21      OSL     -0.490000       15.9994           0
     13021 MEMB     112      SAPC     C21      CL       0.900000       12.0110           0
     13022 MEMB     112      SAPC     O22      OBL     -0.630000       15.9994           0
     13023 MEMB     112      SAPC     C22      CTL2    -0.220000       12.0110           0
     13024 MEMB     112      SAPC     H2R      HAL2     0.900000E-01   1.00800           0
     13025 MEMB     112      SAPC     H2S      HAL2     0.900000E-01   1.00800           0
     13026 MEMB     112      SAPC     C3       CTL2     0.800000E-01   12.0110           0
     13027 MEMB     112      SAPC     HX       HAL2     0.900000E-01   1.00800           0
     13028 MEMB     112      SAPC     HY       HAL2     0.900000E-01   1.00800           0
     13029 MEMB     112      SAPC     O31      OSL     -0.490000       15.9994           0
     13030 MEMB     112      SAPC     C31      CL       0.900000       12.0110           0
     13031 MEMB     112      SAPC     O32      OBL     -0.630000       15.9994           0
     13032 MEMB     112      SAPC     C32      CTL2    -0.220000       12.0110           0
     13033 MEMB     112      SAPC     H2X      HAL2     0.900000E-01   1.00800           0
     13034 MEMB     112      SAPC     H2Y      HAL2     0.900000E-01   1.00800           0
     13035 MEMB     112      SAPC     C23      CTL2    -0.180000       12.0110           0
     13036 MEMB     112      SAPC     H3R      HAL2     0.900000E-01   1.00800           0
     13037 MEMB     112      SAPC     H3S      HAL2     0.900000E-01   1.00800           0
     13038 MEMB     112      SAPC     C24      CTL2    -0.180000       12.0110           0
     13039 MEMB     112      SAPC     H4R      HAL2     0.900000E-01   1.00800           0
     13040 MEMB     112      SAPC     H4S      HAL2     0.900000E-01   1.00800           0
     13041 MEMB     112      SAPC     C25      CEL1    -0.150000       12.0110           0
     13042 MEMB     112      SAPC     H5R      HEL1     0.150000       1.00800           0
     13043 MEMB     112      SAPC     C26      CEL1    -0.150000       12.0110           0
     13044 MEMB     112      SAPC     H6R      HEL1     0.150000       1.00800           0
     13045 MEMB     112      SAPC     C27      CTL2    -0.180000       12.0110           0
     13046 MEMB     112      SAPC     H7R      HAL2     0.900000E-01   1.00800           0
     13047 MEMB     112      SAPC     H7S      HAL2     0.900000E-01   1.00800           0
     13048 MEMB     112      SAPC     C28      CEL1    -0.150000       12.0110           0
     13049 MEMB     112      SAPC     H8R      HEL1     0.150000       1.00800           0
     13050 MEMB     112      SAPC     C29      CEL1    -0.150000       12.0110           0
     13051 MEMB     112      SAPC     H9R      HEL1     0.150000       1.00800           0
     13052 MEMB     112      SAPC     C210     CTL2    -0.180000       12.0110           0
     13053 MEMB     112      SAPC     H10R     HAL2     0.900000E-01   1.00800           0
     13054 MEMB     112      SAPC     H10S     HAL2     0.900000E-01   1.00800           0
     13055 MEMB     112      SAPC     C211     CEL1    -0.150000       12.0110           0
     13056 MEMB     112      SAPC     H11R     HEL1     0.150000       1.00800           0
     13057 MEMB     112      SAPC     C212     CEL1    -0.150000       12.0110           0
     13058 MEMB     112      SAPC     H12R     HEL1     0.150000       1.00800           0
     13059 MEMB     112      SAPC     C213     CTL2    -0.180000       12.0110           0
     13060 MEMB     112      SAPC     H13R     HAL2     0.900000E-01   1.00800           0
     13061 MEMB     112      SAPC     H13S     HAL2     0.900000E-01   1.00800           0
     13062 MEMB     112      SAPC     C214     CEL1    -0.150000       12.0110           0
     13063 MEMB     112      SAPC     H14R     HEL1     0.150000       1.00800           0
     13064 MEMB     112      SAPC     C215     CEL1    -0.150000       12.0110           0
     13065 MEMB     112      SAPC     H15R     HEL1     0.150000       1.00800           0
     13066 MEMB     112      SAPC     C216     CTL2    -0.180000       12.0110           0
     13067 MEMB     112      SAPC     H16R     HAL2     0.900000E-01   1.00800           0
     13068 MEMB     112      SAPC     H16S     HAL2     0.900000E-01   1.00800           0
     13069 MEMB     112      SAPC     C217     CTL2    -0.180000       12.0110           0
     13070 MEMB     112      SAPC     H17R     HAL2     0.900000E-01   1.00800           0
     13071 MEMB     112      SAPC     H17S     HAL2     0.900000E-01   1.00800           0
     13072 MEMB     112      SAPC     C218     CTL2    -0.270000       12.0110           0
     13073 MEMB     112      SAPC     H18R     HAL2     0.900000E-01   1.00800           0
     13074 MEMB     112      SAPC     H18S     HAL2     0.900000E-01   1.00800           0
     13075 MEMB     112      SAPC     C219     CTL2    -0.180000       12.0110           0
     13076 MEMB     112      SAPC     H19R     HAL2     0.900000E-01   1.00800           0
     13077 MEMB     112      SAPC     H19S     HAL2     0.900000E-01   1.00800           0
     13078 MEMB     112      SAPC     C220     CTL3    -0.180000       12.0110           0
     13079 MEMB     112      SAPC     H20R     HAL3     0.900000E-01   1.00800           0
     13080 MEMB     112      SAPC     H20S     HAL3     0.900000E-01   1.00800           0
     13081 MEMB     112      SAPC     H20T     HAL3     0.900000E-01   1.00800           0
     13082 MEMB     112      SAPC     C33      CTL2    -0.180000       12.0110           0
     13083 MEMB     112      SAPC     H3X      HAL2     0.900000E-01   1.00800           0
     13084 MEMB     112      SAPC     H3Y      HAL2     0.900000E-01   1.00800           0
     13085 MEMB     112      SAPC     C34      CTL2    -0.180000       12.0110           0
     13086 MEMB     112      SAPC     H4X      HAL2     0.900000E-01   1.00800           0
     13087 MEMB     112      SAPC     H4Y      HAL2     0.900000E-01   1.00800           0
     13088 MEMB     112      SAPC     C35      CTL2    -0.180000       12.0110           0
     13089 MEMB     112      SAPC     H5X      HAL2     0.900000E-01   1.00800           0
     13090 MEMB     112      SAPC     H5Y      HAL2     0.900000E-01   1.00800           0
     13091 MEMB     112      SAPC     C36      CTL2    -0.180000       12.0110           0
     13092 MEMB     112      SAPC     H6X      HAL2     0.900000E-01   1.00800           0
     13093 MEMB     112      SAPC     H6Y      HAL2     0.900000E-01   1.00800           0
     13094 MEMB     112      SAPC     C37      CTL2    -0.180000       12.0110           0
     13095 MEMB     112      SAPC     H7X      HAL2     0.900000E-01   1.00800           0
     13096 MEMB     112      SAPC     H7Y      HAL2     0.900000E-01   1.00800           0
     13097 MEMB     112      SAPC     C38      CTL2    -0.180000       12.0110           0
     13098 MEMB     112      SAPC     H8X      HAL2     0.900000E-01   1.00800           0
     13099 MEMB     112      SAPC     H8Y      HAL2     0.900000E-01   1.00800           0
     13100 MEMB     112      SAPC     C39      CTL2    -0.180000       12.0110           0
     13101 MEMB     112      SAPC     H9X      HAL2     0.900000E-01   1.00800           0
     13102 MEMB     112      SAPC     H9Y      HAL2     0.900000E-01   1.00800           0
     13103 MEMB     112      SAPC     C310     CTL2    -0.180000       12.0110           0
     13104 MEMB     112      SAPC     H10X     HAL2     0.900000E-01   1.00800           0
     13105 MEMB     112      SAPC     H10Y     HAL2     0.900000E-01   1.00800           0
     13106 MEMB     112      SAPC     C311     CTL2    -0.180000       12.0110           0
     13107 MEMB     112      SAPC     H11X     HAL2     0.900000E-01   1.00800           0
     13108 MEMB     112      SAPC     H11Y     HAL2     0.900000E-01   1.00800           0
     13109 MEMB     112      SAPC     C312     CTL2    -0.180000       12.0110           0
     13110 MEMB     112      SAPC     H12X     HAL2     0.900000E-01   1.00800           0
     13111 MEMB     112      SAPC     H12Y     HAL2     0.900000E-01   1.00800           0
     13112 MEMB     112      SAPC     C313     CTL2    -0.180000       12.0110           0
     13113 MEMB     112      SAPC     H13X     HAL2     0.900000E-01   1.00800           0
     13114 MEMB     112      SAPC     H13Y     HAL2     0.900000E-01   1.00800           0
     13115 MEMB     112      SAPC     C314     CTL2    -0.180000       12.0110           0
     13116 MEMB     112      SAPC     H14X     HAL2     0.900000E-01   1.00800           0
     13117 MEMB     112      SAPC     H14Y     HAL2     0.900000E-01   1.00800           0
     13118 MEMB     112      SAPC     C315     CTL2    -0.180000       12.0110           0
     13119 MEMB     112      SAPC     H15X     HAL2     0.900000E-01   1.00800           0
     13120 MEMB     112      SAPC     H15Y     HAL2     0.900000E-01   1.00800           0
     13121 MEMB     112      SAPC     C316     CTL2    -0.180000       12.0110           0
     13122 MEMB     112      SAPC     H16X     HAL2     0.900000E-01   1.00800           0
     13123 MEMB     112      SAPC     H16Y     HAL2     0.900000E-01   1.00800           0
     13124 MEMB     112      SAPC     C317     CTL2    -0.180000       12.0110           0
     13125 MEMB     112      SAPC     H17X     HAL2     0.900000E-01   1.00800           0
     13126 MEMB     112      SAPC     H17Y     HAL2     0.900000E-01   1.00800           0
     13127 MEMB     112      SAPC     C318     CTL3    -0.270000       12.0110           0
     13128 MEMB     112      SAPC     H18X     HAL3     0.900000E-01   1.00800           0
     13129 MEMB     112      SAPC     H18Y     HAL3     0.900000E-01   1.00800           0
     13130 MEMB     112      SAPC     H18Z     HAL3     0.900000E-01   1.00800           0
     13131 MEMB     113      CHL1     C3       CRL1     0.140000       12.0110           0
     13132 MEMB     113      CHL1     H3       HGA1     0.900000E-01   1.00800           0
     13133 MEMB     113      CHL1     O3       OHL     -0.660000       15.9994           0
     13134 MEMB     113      CHL1     H3'      HOL      0.430000       1.00800           0
     13135 MEMB     113      CHL1     C4       CRL2    -0.180000       12.0110           0
     13136 MEMB     113      CHL1     H4A      HGA2     0.900000E-01   1.00800           0
     13137 MEMB     113      CHL1     H4B      HGA2     0.900000E-01   1.00800           0
     13138 MEMB     113      CHL1     C5       CEL1      0.00000       12.0110           0
     13139 MEMB     113      CHL1     C6       CEL1    -0.150000       12.0110           0
     13140 MEMB     113      CHL1     H6       HEL1     0.150000       1.00800           0
     13141 MEMB     113      CHL1     C7       CRL2    -0.180000       12.0110           0
     13142 MEMB     113      CHL1     H7A      HGA2     0.900000E-01   1.00800           0
     13143 MEMB     113      CHL1     H7B      HGA2     0.900000E-01   1.00800           0
     13144 MEMB     113      CHL1     C8       CRL1    -0.900000E-01   12.0110           0
     13145 MEMB     113      CHL1     H8       HGA1     0.900000E-01   1.00800           0
     13146 MEMB     113      CHL1     C14      CRL1    -0.900000E-01   12.0110           0
     13147 MEMB     113      CHL1     H14      HGA1     0.900000E-01   1.00800           0
     13148 MEMB     113      CHL1     C15      CRL2    -0.180000       12.0110           0
     13149 MEMB     113      CHL1     H15A     HGA2     0.900000E-01   1.00800           0
     13150 MEMB     113      CHL1     H15B     HGA2     0.900000E-01   1.00800           0
     13151 MEMB     113      CHL1     C16      CRL2    -0.180000       12.0110           0
     13152 MEMB     113      CHL1     H16A     HGA2     0.900000E-01   1.00800           0
     13153 MEMB     113      CHL1     H16B     HGA2     0.900000E-01   1.00800           0
     13154 MEMB     113      CHL1     C17      CRL1    -0.900000E-01   12.0110           0
     13155 MEMB     113      CHL1     H17      HGA1     0.900000E-01   1.00800           0
     13156 MEMB     113      CHL1     C13      CRL1      0.00000       12.0110           0
     13157 MEMB     113      CHL1     C18      CTL3    -0.270000       12.0110           0
     13158 MEMB     113      CHL1     H18A     HAL3     0.900000E-01   1.00800           0
     13159 MEMB     113      CHL1     H18B     HAL3     0.900000E-01   1.00800           0
     13160 MEMB     113      CHL1     H18C     HAL3     0.900000E-01   1.00800           0
     13161 MEMB     113      CHL1     C12      CRL2    -0.180000       12.0110           0
     13162 MEMB     113      CHL1     H12A     HGA2     0.900000E-01   1.00800           0
     13163 MEMB     113      CHL1     H12B     HGA2     0.900000E-01   1.00800           0
     13164 MEMB     113      CHL1     C11      CRL2    -0.180000       12.0110           0
     13165 MEMB     113      CHL1     H11A     HGA2     0.900000E-01   1.00800           0
     13166 MEMB     113      CHL1     H11B     HGA2     0.900000E-01   1.00800           0
     13167 MEMB     113      CHL1     C9       CRL1    -0.900000E-01   12.0110           0
     13168 MEMB     113      CHL1     H9       HGA1     0.900000E-01   1.00800           0
     13169 MEMB     113      CHL1     C10      CRL1      0.00000       12.0110           0
     13170 MEMB     113      CHL1     C19      CTL3    -0.270000       12.0110           0
     13171 MEMB     113      CHL1     H19A     HAL3     0.900000E-01   1.00800           0
     13172 MEMB     113      CHL1     H19B     HAL3     0.900000E-01   1.00800           0
     13173 MEMB     113      CHL1     H19C     HAL3     0.900000E-01   1.00800           0
     13174 MEMB     113      CHL1     C1       CRL2    -0.180000       12.0110           0
     13175 MEMB     113      CHL1     H1A      HGA2     0.900000E-01   1.00800           0
     13176 MEMB     113      CHL1     H1B      HGA2     0.900000E-01   1.00800           0
     13177 MEMB     113      CHL1     C2       CRL2    -0.180000       12.0110           0
     13178 MEMB     113      CHL1     H2A      HGA2     0.900000E-01   1.00800           0
     13179 MEMB     113      CHL1     H2B      HGA2     0.900000E-01   1.00800           0
     13180 MEMB     113      CHL1     C20      CTL1    -0.900000E-01   12.0110           0
     13181 MEMB     113      CHL1     H20      HAL1     0.900000E-01   1.00800           0
     13182 MEMB     113      CHL1     C21      CTL3    -0.270000       12.0110           0
     13183 MEMB     113      CHL1     H21A     HAL3     0.900000E-01   1.00800           0
     13184 MEMB     113      CHL1     H21B     HAL3     0.900000E-01   1.00800           0
     13185 MEMB     113      CHL1     H21C     HAL3     0.900000E-01   1.00800           0
     13186 MEMB     113      CHL1     C22      CTL2    -0.180000       12.0110           0
     13187 MEMB     113      CHL1     H22A     HAL2     0.900000E-01   1.00800           0
     13188 MEMB     113      CHL1     H22B     HAL2     0.900000E-01   1.00800           0
     13189 MEMB     113      CHL1     C23      CTL2    -0.180000       12.0110           0
     13190 MEMB     113      CHL1     H23A     HAL2     0.900000E-01   1.00800           0
     13191 MEMB     113      CHL1     H23B     HAL2     0.900000E-01   1.00800           0
     13192 MEMB     113      CHL1     C24      CTL2    -0.180000       12.0110           0
     13193 MEMB     113      CHL1     H24A     HAL2     0.900000E-01   1.00800           0
     13194 MEMB     113      CHL1     H24B     HAL2     0.900000E-01   1.00800           0
     13195 MEMB     113      CHL1     C25      CTL1    -0.900000E-01   12.0110           0
     13196 MEMB     113      CHL1     H25      HAL1     0.900000E-01   1.00800           0
     13197 MEMB     113      CHL1     C26      CTL3    -0.270000       12.0110           0
     13198 MEMB     113      CHL1     H26A     HAL3     0.900000E-01   1.00800           0
     13199 MEMB     113      CHL1     H26B     HAL3     0.900000E-01   1.00800           0
     13200 MEMB     113      CHL1     H26C     HAL3     0.900000E-01   1.00800           0
     13201 MEMB     113      CHL1     C27      CTL3    -0.270000       12.0110           0
     13202 MEMB     113      CHL1     H27A     HAL3     0.900000E-01   1.00800           0
     13203 MEMB     113      CHL1     H27B     HAL3     0.900000E-01   1.00800           0
     13204 MEMB     113      CHL1     H27C     HAL3     0.900000E-01   1.00800           0
     13205 MEMB     114      CHL1     C3       CRL1     0.140000       12.0110           0
     13206 MEMB     114      CHL1     H3       HGA1     0.900000E-01   1.00800           0
     13207 MEMB     114      CHL1     O3       OHL     -0.660000       15.9994           0
     13208 MEMB     114      CHL1     H3'      HOL      0.430000       1.00800           0
     13209 MEMB     114      CHL1     C4       CRL2    -0.180000       12.0110           0
     13210 MEMB     114      CHL1     H4A      HGA2     0.900000E-01   1.00800           0
     13211 MEMB     114      CHL1     H4B      HGA2     0.900000E-01   1.00800           0
     13212 MEMB     114      CHL1     C5       CEL1      0.00000       12.0110           0
     13213 MEMB     114      CHL1     C6       CEL1    -0.150000       12.0110           0
     13214 MEMB     114      CHL1     H6       HEL1     0.150000       1.00800           0
     13215 MEMB     114      CHL1     C7       CRL2    -0.180000       12.0110           0
     13216 MEMB     114      CHL1     H7A      HGA2     0.900000E-01   1.00800           0
     13217 MEMB     114      CHL1     H7B      HGA2     0.900000E-01   1.00800           0
     13218 MEMB     114      CHL1     C8       CRL1    -0.900000E-01   12.0110           0
     13219 MEMB     114      CHL1     H8       HGA1     0.900000E-01   1.00800           0
     13220 MEMB     114      CHL1     C14      CRL1    -0.900000E-01   12.0110           0
     13221 MEMB     114      CHL1     H14      HGA1     0.900000E-01   1.00800           0
     13222 MEMB     114      CHL1     C15      CRL2    -0.180000       12.0110           0
     13223 MEMB     114      CHL1     H15A     HGA2     0.900000E-01   1.00800           0
     13224 MEMB     114      CHL1     H15B     HGA2     0.900000E-01   1.00800           0
     13225 MEMB     114      CHL1     C16      CRL2    -0.180000       12.0110           0
     13226 MEMB     114      CHL1     H16A     HGA2     0.900000E-01   1.00800           0
     13227 MEMB     114      CHL1     H16B     HGA2     0.900000E-01   1.00800           0
     13228 MEMB     114      CHL1     C17      CRL1    -0.900000E-01   12.0110           0
     13229 MEMB     114      CHL1     H17      HGA1     0.900000E-01   1.00800           0
     13230 MEMB     114      CHL1     C13      CRL1      0.00000       12.0110           0
     13231 MEMB     114      CHL1     C18      CTL3    -0.270000       12.0110           0
     13232 MEMB     114      CHL1     H18A     HAL3     0.900000E-01   1.00800           0
     13233 MEMB     114      CHL1     H18B     HAL3     0.900000E-01   1.00800           0
     13234 MEMB     114      CHL1     H18C     HAL3     0.900000E-01   1.00800           0
     13235 MEMB     114      CHL1     C12      CRL2    -0.180000       12.0110           0
     13236 MEMB     114      CHL1     H12A     HGA2     0.900000E-01   1.00800           0
     13237 MEMB     114      CHL1     H12B     HGA2     0.900000E-01   1.00800           0
     13238 MEMB     114      CHL1     C11      CRL2    -0.180000       12.0110           0
     13239 MEMB     114      CHL1     H11A     HGA2     0.900000E-01   1.00800           0
     13240 MEMB     114      CHL1     H11B     HGA2     0.900000E-01   1.00800           0
     13241 MEMB     114      CHL1     C9       CRL1    -0.900000E-01   12.0110           0
     13242 MEMB     114      CHL1     H9       HGA1     0.900000E-01   1.00800           0
     13243 MEMB     114      CHL1     C10      CRL1      0.00000       12.0110           0
     13244 MEMB     114      CHL1     C19      CTL3    -0.270000       12.0110           0
     13245 MEMB     114      CHL1     H19A     HAL3     0.900000E-01   1.00800           0
     13246 MEMB     114      CHL1     H19B     HAL3     0.900000E-01   1.00800           0
     13247 MEMB     114      CHL1     H19C     HAL3     0.900000E-01   1.00800           0
     13248 MEMB     114      CHL1     C1       CRL2    -0.180000       12.0110           0
     13249 MEMB     114      CHL1     H1A      HGA2     0.900000E-01   1.00800           0
     13250 MEMB     114      CHL1     H1B      HGA2     0.900000E-01   1.00800           0
     13251 MEMB     114      CHL1     C2       CRL2    -0.180000       12.0110           0
     13252 MEMB     114      CHL1     H2A      HGA2     0.900000E-01   1.00800           0
     13253 MEMB     114      CHL1     H2B      HGA2     0.900000E-01   1.00800           0
     13254 MEMB     114      CHL1     C20      CTL1    -0.900000E-01   12.0110           0
     13255 MEMB     114      CHL1     H20      HAL1     0.900000E-01   1.00800           0
     13256 MEMB     114      CHL1     C21      CTL3    -0.270000       12.0110           0
     13257 MEMB     114      CHL1     H21A     HAL3     0.900000E-01   1.00800           0
     13258 MEMB     114      CHL1     H21B     HAL3     0.900000E-01   1.00800           0
     13259 MEMB     114      CHL1     H21C     HAL3     0.900000E-01   1.00800           0
     13260 MEMB     114      CHL1     C22      CTL2    -0.180000       12.0110           0
     13261 MEMB     114      CHL1     H22A     HAL2     0.900000E-01   1.00800           0
     13262 MEMB     114      CHL1     H22B     HAL2     0.900000E-01   1.00800           0
     13263 MEMB     114      CHL1     C23      CTL2    -0.180000       12.0110           0
     13264 MEMB     114      CHL1     H23A     HAL2     0.900000E-01   1.00800           0
     13265 MEMB     114      CHL1     H23B     HAL2     0.900000E-01   1.00800           0
     13266 MEMB     114      CHL1     C24      CTL2    -0.180000       12.0110           0
     13267 MEMB     114      CHL1     H24A     HAL2     0.900000E-01   1.00800           0
     13268 MEMB     114      CHL1     H24B     HAL2     0.900000E-01   1.00800           0
     13269 MEMB     114      CHL1     C25      CTL1    -0.900000E-01   12.0110           0
     13270 MEMB     114      CHL1     H25      HAL1     0.900000E-01   1.00800           0
     13271 MEMB     114      CHL1     C26      CTL3    -0.270000       12.0110           0
     13272 MEMB     114      CHL1     H26A     HAL3     0.900000E-01   1.00800           0
     13273 MEMB     114      CHL1     H26B     HAL3     0.900000E-01   1.00800           0
     13274 MEMB     114      CHL1     H26C     HAL3     0.900000E-01   1.00800           0
     13275 MEMB     114      CHL1     C27      CTL3    -0.270000       12.0110           0
     13276 MEMB     114      CHL1     H27A     HAL3     0.900000E-01   1.00800           0
     13277 MEMB     114      CHL1     H27B     HAL3     0.900000E-01   1.00800           0
     13278 MEMB     114      CHL1     H27C     HAL3     0.900000E-01   1.00800           0
     13279 MEMB     115      CHL1     C3       CRL1     0.140000       12.0110           0
     13280 MEMB     115      CHL1     H3       HGA1     0.900000E-01   1.00800           0
     13281 MEMB     115      CHL1     O3       OHL     -0.660000       15.9994           0
     13282 MEMB     115      CHL1     H3'      HOL      0.430000       1.00800           0
     13283 MEMB     115      CHL1     C4       CRL2    -0.180000       12.0110           0
     13284 MEMB     115      CHL1     H4A      HGA2     0.900000E-01   1.00800           0
     13285 MEMB     115      CHL1     H4B      HGA2     0.900000E-01   1.00800           0
     13286 MEMB     115      CHL1     C5       CEL1      0.00000       12.0110           0
     13287 MEMB     115      CHL1     C6       CEL1    -0.150000       12.0110           0
     13288 MEMB     115      CHL1     H6       HEL1     0.150000       1.00800           0
     13289 MEMB     115      CHL1     C7       CRL2    -0.180000       12.0110           0
     13290 MEMB     115      CHL1     H7A      HGA2     0.900000E-01   1.00800           0
     13291 MEMB     115      CHL1     H7B      HGA2     0.900000E-01   1.00800           0
     13292 MEMB     115      CHL1     C8       CRL1    -0.900000E-01   12.0110           0
     13293 MEMB     115      CHL1     H8       HGA1     0.900000E-01   1.00800           0
     13294 MEMB     115      CHL1     C14      CRL1    -0.900000E-01   12.0110           0
     13295 MEMB     115      CHL1     H14      HGA1     0.900000E-01   1.00800           0
     13296 MEMB     115      CHL1     C15      CRL2    -0.180000       12.0110           0
     13297 MEMB     115      CHL1     H15A     HGA2     0.900000E-01   1.00800           0
     13298 MEMB     115      CHL1     H15B     HGA2     0.900000E-01   1.00800           0
     13299 MEMB     115      CHL1     C16      CRL2    -0.180000       12.0110           0
     13300 MEMB     115      CHL1     H16A     HGA2     0.900000E-01   1.00800           0
     13301 MEMB     115      CHL1     H16B     HGA2     0.900000E-01   1.00800           0
     13302 MEMB     115      CHL1     C17      CRL1    -0.900000E-01   12.0110           0
     13303 MEMB     115      CHL1     H17      HGA1     0.900000E-01   1.00800           0
     13304 MEMB     115      CHL1     C13      CRL1      0.00000       12.0110           0
     13305 MEMB     115      CHL1     C18      CTL3    -0.270000       12.0110           0
     13306 MEMB     115      CHL1     H18A     HAL3     0.900000E-01   1.00800           0
     13307 MEMB     115      CHL1     H18B     HAL3     0.900000E-01   1.00800           0
     13308 MEMB     115      CHL1     H18C     HAL3     0.900000E-01   1.00800           0
     13309 MEMB     115      CHL1     C12      CRL2    -0.180000       12.0110           0
     13310 MEMB     115      CHL1     H12A     HGA2     0.900000E-01   1.00800           0
     13311 MEMB     115      CHL1     H12B     HGA2     0.900000E-01   1.00800           0
     13312 MEMB     115      CHL1     C11      CRL2    -0.180000       12.0110           0
     13313 MEMB     115      CHL1     H11A     HGA2     0.900000E-01   1.00800           0
     13314 MEMB     115      CHL1     H11B     HGA2     0.900000E-01   1.00800           0
     13315 MEMB     115      CHL1     C9       CRL1    -0.900000E-01   12.0110           0
     13316 MEMB     115      CHL1     H9       HGA1     0.900000E-01   1.00800           0
     13317 MEMB     115      CHL1     C10      CRL1      0.00000       12.0110           0
     13318 MEMB     115      CHL1     C19      CTL3    -0.270000       12.0110           0
     13319 MEMB     115      CHL1     H19A     HAL3     0.900000E-01   1.00800           0
     13320 MEMB     115      CHL1     H19B     HAL3     0.900000E-01   1.00800           0
     13321 MEMB     115      CHL1     H19C     HAL3     0.900000E-01   1.00800           0
     13322 MEMB     115      CHL1     C1       CRL2    -0.180000       12.0110           0
     13323 MEMB     115      CHL1     H1A      HGA2     0.900000E-01   1.00800           0
     13324 MEMB     115      CHL1     H1B      HGA2     0.900000E-01   1.00800           0
     13325 MEMB     115      CHL1     C2       CRL2    -0.180000       12.0110           0
     13326 MEMB     115      CHL1     H2A      HGA2     0.900000E-01   1.00800           0
     13327 MEMB     115      CHL1     H2B      HGA2     0.900000E-01   1.00800           0
     13328 MEMB     115      CHL1     C20      CTL1    -0.900000E-01   12.0110           0
     13329 MEMB     115      CHL1     H20      HAL1     0.900000E-01   1.00800           0
     13330 MEMB     115      CHL1     C21      CTL3    -0.270000       12.0110           0
     13331 MEMB     115      CHL1     H21A     HAL3     0.900000E-01   1.00800           0
     13332 MEMB     115      CHL1     H21B     HAL3     0.900000E-01   1.00800           0
     13333 MEMB     115      CHL1     H21C     HAL3     0.900000E-01   1.00800           0
     13334 MEMB     115      CHL1     C22      CTL2    -0.180000       12.0110           0
     13335 MEMB     115      CHL1     H22A     HAL2     0.900000E-01   1.00800           0
     13336 MEMB     115      CHL1     H22B     HAL2     0.900000E-01   1.00800           0
     13337 MEMB     115      CHL1     C23      CTL2    -0.180000       12.0110           0
     13338 MEMB     115      CHL1     H23A     HAL2     0.900000E-01   1.00800           0
     13339 MEMB     115      CHL1     H23B     HAL2     0.900000E-01   1.00800           0
     13340 MEMB     115      CHL1     C24      CTL2    -0.180000       12.0110           0
     13341 MEMB     115      CHL1     H24A     HAL2     0.900000E-01   1.00800           0
     13342 MEMB     115      CHL1     H24B     HAL2     0.900000E-01   1.00800           0
     13343 MEMB     115      CHL1     C25      CTL1    -0.900000E-01   12.0110           0
     13344 MEMB     115      CHL1     H25      HAL1     0.900000E-01   1.00800           0
     13345 MEMB     115      CHL1     C26      CTL3    -0.270000       12.0110           0
     13346 MEMB     115      CHL1     H26A     HAL3     0.900000E-01   1.00800           0
     13347 MEMB     115      CHL1     H26B     HAL3     0.900000E-01   1.00800           0
     13348 MEMB     115      CHL1     H26C     HAL3     0.900000E-01   1.00800           0
     13349 MEMB     115      CHL1     C27      CTL3    -0.270000       12.0110           0
     13350 MEMB     115      CHL1     H27A     HAL3     0.900000E-01   1.00800           0
     13351 MEMB     115      CHL1     H27B     HAL3     0.900000E-01   1.00800           0
     13352 MEMB     115      CHL1     H27C     HAL3     0.900000E-01   1.00800           0
     13353 MEMB     116      SAPC     N        NTL     -0.600000       14.0070           0
     13354 MEMB     116      SAPC     C12      CTL2    -0.100000       12.0110           0
     13355 MEMB     116      SAPC     H12A     HL       0.250000       1.00800           0
     13356 MEMB     116      SAPC     H12B     HL       0.250000       1.00800           0
     13357 MEMB     116      SAPC     C13      CTL5    -0.350000       12.0110           0
     13358 MEMB     116      SAPC     H13A     HL       0.250000       1.00800           0
     13359 MEMB     116      SAPC     H13B     HL       0.250000       1.00800           0
     13360 MEMB     116      SAPC     H13C     HL       0.250000       1.00800           0
     13361 MEMB     116      SAPC     C14      CTL5    -0.350000       12.0110           0
     13362 MEMB     116      SAPC     H14A     HL       0.250000       1.00800           0
     13363 MEMB     116      SAPC     H14B     HL       0.250000       1.00800           0
     13364 MEMB     116      SAPC     H14C     HL       0.250000       1.00800           0
     13365 MEMB     116      SAPC     C15      CTL5    -0.350000       12.0110           0
     13366 MEMB     116      SAPC     H15A     HL       0.250000       1.00800           0
     13367 MEMB     116      SAPC     H15B     HL       0.250000       1.00800           0
     13368 MEMB     116      SAPC     H15C     HL       0.250000       1.00800           0
     13369 MEMB     116      SAPC     C11      CTL2    -0.800000E-01   12.0110           0
     13370 MEMB     116      SAPC     H11A     HAL2     0.900000E-01   1.00800           0
     13371 MEMB     116      SAPC     H11B     HAL2     0.900000E-01   1.00800           0
     13372 MEMB     116      SAPC     P        PL        1.50000       30.9740           0
     13373 MEMB     116      SAPC     O13      O2L     -0.780000       15.9994           0
     13374 MEMB     116      SAPC     O14      O2L     -0.780000       15.9994           0
     13375 MEMB     116      SAPC     O12      OSLP    -0.570000       15.9994           0
     13376 MEMB     116      SAPC     O11      OSLP    -0.570000       15.9994           0
     13377 MEMB     116      SAPC     C1       CTL2    -0.800000E-01   12.0110           0
     13378 MEMB     116      SAPC     HA       HAL2     0.900000E-01   1.00800           0
     13379 MEMB     116      SAPC     HB       HAL2     0.900000E-01   1.00800           0
     13380 MEMB     116      SAPC     C2       CTL1     0.170000       12.0110           0
     13381 MEMB     116      SAPC     HS       HAL1     0.900000E-01   1.00800           0
     13382 MEMB     116      SAPC     O21      OSL     -0.490000       15.9994           0
     13383 MEMB     116      SAPC     C21      CL       0.900000       12.0110           0
     13384 MEMB     116      SAPC     O22      OBL     -0.630000       15.9994           0
     13385 MEMB     116      SAPC     C22      CTL2    -0.220000       12.0110           0
     13386 MEMB     116      SAPC     H2R      HAL2     0.900000E-01   1.00800           0
     13387 MEMB     116      SAPC     H2S      HAL2     0.900000E-01   1.00800           0
     13388 MEMB     116      SAPC     C3       CTL2     0.800000E-01   12.0110           0
     13389 MEMB     116      SAPC     HX       HAL2     0.900000E-01   1.00800           0
     13390 MEMB     116      SAPC     HY       HAL2     0.900000E-01   1.00800           0
     13391 MEMB     116      SAPC     O31      OSL     -0.490000       15.9994           0
     13392 MEMB     116      SAPC     C31      CL       0.900000       12.0110           0
     13393 MEMB     116      SAPC     O32      OBL     -0.630000       15.9994           0
     13394 MEMB     116      SAPC     C32      CTL2    -0.220000       12.0110           0
     13395 MEMB     116      SAPC     H2X      HAL2     0.900000E-01   1.00800           0
     13396 MEMB     116      SAPC     H2Y      HAL2     0.900000E-01   1.00800           0
     13397 MEMB     116      SAPC     C23      CTL2    -0.180000       12.0110           0
     13398 MEMB     116      SAPC     H3R      HAL2     0.900000E-01   1.00800           0
     13399 MEMB     116      SAPC     H3S      HAL2     0.900000E-01   1.00800           0
     13400 MEMB     116      SAPC     C24      CTL2    -0.180000       12.0110           0
     13401 MEMB     116      SAPC     H4R      HAL2     0.900000E-01   1.00800           0
     13402 MEMB     116      SAPC     H4S      HAL2     0.900000E-01   1.00800           0
     13403 MEMB     116      SAPC     C25      CEL1    -0.150000       12.0110           0
     13404 MEMB     116      SAPC     H5R      HEL1     0.150000       1.00800           0
     13405 MEMB     116      SAPC     C26      CEL1    -0.150000       12.0110           0
     13406 MEMB     116      SAPC     H6R      HEL1     0.150000       1.00800           0
     13407 MEMB     116      SAPC     C27      CTL2    -0.180000       12.0110           0
     13408 MEMB     116      SAPC     H7R      HAL2     0.900000E-01   1.00800           0
     13409 MEMB     116      SAPC     H7S      HAL2     0.900000E-01   1.00800           0
     13410 MEMB     116      SAPC     C28      CEL1    -0.150000       12.0110           0
     13411 MEMB     116      SAPC     H8R      HEL1     0.150000       1.00800           0
     13412 MEMB     116      SAPC     C29      CEL1    -0.150000       12.0110           0
     13413 MEMB     116      SAPC     H9R      HEL1     0.150000       1.00800           0
     13414 MEMB     116      SAPC     C210     CTL2    -0.180000       12.0110           0
     13415 MEMB     116      SAPC     H10R     HAL2     0.900000E-01   1.00800           0
     13416 MEMB     116      SAPC     H10S     HAL2     0.900000E-01   1.00800           0
     13417 MEMB     116      SAPC     C211     CEL1    -0.150000       12.0110           0
     13418 MEMB     116      SAPC     H11R     HEL1     0.150000       1.00800           0
     13419 MEMB     116      SAPC     C212     CEL1    -0.150000       12.0110           0
     13420 MEMB     116      SAPC     H12R     HEL1     0.150000       1.00800           0
     13421 MEMB     116      SAPC     C213     CTL2    -0.180000       12.0110           0
     13422 MEMB     116      SAPC     H13R     HAL2     0.900000E-01   1.00800           0
     13423 MEMB     116      SAPC     H13S     HAL2     0.900000E-01   1.00800           0
     13424 MEMB     116      SAPC     C214     CEL1    -0.150000       12.0110           0
     13425 MEMB     116      SAPC     H14R     HEL1     0.150000       1.00800           0
     13426 MEMB     116      SAPC     C215     CEL1    -0.150000       12.0110           0
     13427 MEMB     116      SAPC     H15R     HEL1     0.150000       1.00800           0
     13428 MEMB     116      SAPC     C216     CTL2    -0.180000       12.0110           0
     13429 MEMB     116      SAPC     H16R     HAL2     0.900000E-01   1.00800           0
     13430 MEMB     116      SAPC     H16S     HAL2     0.900000E-01   1.00800           0
     13431 MEMB     116      SAPC     C217     CTL2    -0.180000       12.0110           0
     13432 MEMB     116      SAPC     H17R     HAL2     0.900000E-01   1.00800           0
     13433 MEMB     116      SAPC     H17S     HAL2     0.900000E-01   1.00800           0
     13434 MEMB     116      SAPC     C218     CTL2    -0.270000       12.0110           0
     13435 MEMB     116      SAPC     H18R     HAL2     0.900000E-01   1.00800           0
     13436 MEMB     116      SAPC     H18S     HAL2     0.900000E-01   1.00800           0
     13437 MEMB     116      SAPC     C219     CTL2    -0.180000       12.0110           0
     13438 MEMB     116      SAPC     H19R     HAL2     0.900000E-01   1.00800           0
     13439 MEMB     116      SAPC     H19S     HAL2     0.900000E-01   1.00800           0
     13440 MEMB     116      SAPC     C220     CTL3    -0.180000       12.0110           0
     13441 MEMB     116      SAPC     H20R     HAL3     0.900000E-01   1.00800           0
     13442 MEMB     116      SAPC     H20S     HAL3     0.900000E-01   1.00800           0
     13443 MEMB     116      SAPC     H20T     HAL3     0.900000E-01   1.00800           0
     13444 MEMB     116      SAPC     C33      CTL2    -0.180000       12.0110           0
     13445 MEMB     116      SAPC     H3X      HAL2     0.900000E-01   1.00800           0
     13446 MEMB     116      SAPC     H3Y      HAL2     0.900000E-01   1.00800           0
     13447 MEMB     116      SAPC     C34      CTL2    -0.180000       12.0110           0
     13448 MEMB     116      SAPC     H4X      HAL2     0.900000E-01   1.00800           0
     13449 MEMB     116      SAPC     H4Y      HAL2     0.900000E-01   1.00800           0
     13450 MEMB     116      SAPC     C35      CTL2    -0.180000       12.0110           0
     13451 MEMB     116      SAPC     H5X      HAL2     0.900000E-01   1.00800           0
     13452 MEMB     116      SAPC     H5Y      HAL2     0.900000E-01   1.00800           0
     13453 MEMB     116      SAPC     C36      CTL2    -0.180000       12.0110           0
     13454 MEMB     116      SAPC     H6X      HAL2     0.900000E-01   1.00800           0
     13455 MEMB     116      SAPC     H6Y      HAL2     0.900000E-01   1.00800           0
     13456 MEMB     116      SAPC     C37      CTL2    -0.180000       12.0110           0
     13457 MEMB     116      SAPC     H7X      HAL2     0.900000E-01   1.00800           0
     13458 MEMB     116      SAPC     H7Y      HAL2     0.900000E-01   1.00800           0
     13459 MEMB     116      SAPC     C38      CTL2    -0.180000       12.0110           0
     13460 MEMB     116      SAPC     H8X      HAL2     0.900000E-01   1.00800           0
     13461 MEMB     116      SAPC     H8Y      HAL2     0.900000E-01   1.00800           0
     13462 MEMB     116      SAPC     C39      CTL2    -0.180000       12.0110           0
     13463 MEMB     116      SAPC     H9X      HAL2     0.900000E-01   1.00800           0
     13464 MEMB     116      SAPC     H9Y      HAL2     0.900000E-01   1.00800           0
     13465 MEMB     116      SAPC     C310     CTL2    -0.180000       12.0110           0
     13466 MEMB     116      SAPC     H10X     HAL2     0.900000E-01   1.00800           0
     13467 MEMB     116      SAPC     H10Y     HAL2     0.900000E-01   1.00800           0
     13468 MEMB     116      SAPC     C311     CTL2    -0.180000       12.0110           0
     13469 MEMB     116      SAPC     H11X     HAL2     0.900000E-01   1.00800           0
     13470 MEMB     116      SAPC     H11Y     HAL2     0.900000E-01   1.00800           0
     13471 MEMB     116      SAPC     C312     CTL2    -0.180000       12.0110           0
     13472 MEMB     116      SAPC     H12X     HAL2     0.900000E-01   1.00800           0
     13473 MEMB     116      SAPC     H12Y     HAL2     0.900000E-01   1.00800           0
     13474 MEMB     116      SAPC     C313     CTL2    -0.180000       12.0110           0
     13475 MEMB     116      SAPC     H13X     HAL2     0.900000E-01   1.00800           0
     13476 MEMB     116      SAPC     H13Y     HAL2     0.900000E-01   1.00800           0
     13477 MEMB     116      SAPC     C314     CTL2    -0.180000       12.0110           0
     13478 MEMB     116      SAPC     H14X     HAL2     0.900000E-01   1.00800           0
     13479 MEMB     116      SAPC     H14Y     HAL2     0.900000E-01   1.00800           0
     13480 MEMB     116      SAPC     C315     CTL2    -0.180000       12.0110           0
     13481 MEMB     116      SAPC     H15X     HAL2     0.900000E-01   1.00800           0
     13482 MEMB     116      SAPC     H15Y     HAL2     0.900000E-01   1.00800           0
     13483 MEMB     116      SAPC     C316     CTL2    -0.180000       12.0110           0
     13484 MEMB     116      SAPC     H16X     HAL2     0.900000E-01   1.00800           0
     13485 MEMB     116      SAPC     H16Y     HAL2     0.900000E-01   1.00800           0
     13486 MEMB     116      SAPC     C317     CTL2    -0.180000       12.0110           0
     13487 MEMB     116      SAPC     H17X     HAL2     0.900000E-01   1.00800           0
     13488 MEMB     116      SAPC     H17Y     HAL2     0.900000E-01   1.00800           0
     13489 MEMB     116      SAPC     C318     CTL3    -0.270000       12.0110           0
     13490 MEMB     116      SAPC     H18X     HAL3     0.900000E-01   1.00800           0
     13491 MEMB     116      SAPC     H18Y     HAL3     0.900000E-01   1.00800           0
     13492 MEMB     116      SAPC     H18Z     HAL3     0.900000E-01   1.00800           0
     13493 MEMB     117      CHL1     C3       CRL1     0.140000       12.0110           0
     13494 MEMB     117      CHL1     H3       HGA1     0.900000E-01   1.00800           0
     13495 MEMB     117      CHL1     O3       OHL     -0.660000       15.9994           0
     13496 MEMB     117      CHL1     H3'      HOL      0.430000       1.00800           0
     13497 MEMB     117      CHL1     C4       CRL2    -0.180000       12.0110           0
     13498 MEMB     117      CHL1     H4A      HGA2     0.900000E-01   1.00800           0
     13499 MEMB     117      CHL1     H4B      HGA2     0.900000E-01   1.00800           0
     13500 MEMB     117      CHL1     C5       CEL1      0.00000       12.0110           0
     13501 MEMB     117      CHL1     C6       CEL1    -0.150000       12.0110           0
     13502 MEMB     117      CHL1     H6       HEL1     0.150000       1.00800           0
     13503 MEMB     117      CHL1     C7       CRL2    -0.180000       12.0110           0
     13504 MEMB     117      CHL1     H7A      HGA2     0.900000E-01   1.00800           0
     13505 MEMB     117      CHL1     H7B      HGA2     0.900000E-01   1.00800           0
     13506 MEMB     117      CHL1     C8       CRL1    -0.900000E-01   12.0110           0
     13507 MEMB     117      CHL1     H8       HGA1     0.900000E-01   1.00800           0
     13508 MEMB     117      CHL1     C14      CRL1    -0.900000E-01   12.0110           0
     13509 MEMB     117      CHL1     H14      HGA1     0.900000E-01   1.00800           0
     13510 MEMB     117      CHL1     C15      CRL2    -0.180000       12.0110           0
     13511 MEMB     117      CHL1     H15A     HGA2     0.900000E-01   1.00800           0
     13512 MEMB     117      CHL1     H15B     HGA2     0.900000E-01   1.00800           0
     13513 MEMB     117      CHL1     C16      CRL2    -0.180000       12.0110           0
     13514 MEMB     117      CHL1     H16A     HGA2     0.900000E-01   1.00800           0
     13515 MEMB     117      CHL1     H16B     HGA2     0.900000E-01   1.00800           0
     13516 MEMB     117      CHL1     C17      CRL1    -0.900000E-01   12.0110           0
     13517 MEMB     117      CHL1     H17      HGA1     0.900000E-01   1.00800           0
     13518 MEMB     117      CHL1     C13      CRL1      0.00000       12.0110           0
     13519 MEMB     117      CHL1     C18      CTL3    -0.270000       12.0110           0
     13520 MEMB     117      CHL1     H18A     HAL3     0.900000E-01   1.00800           0
     13521 MEMB     117      CHL1     H18B     HAL3     0.900000E-01   1.00800           0
     13522 MEMB     117      CHL1     H18C     HAL3     0.900000E-01   1.00800           0
     13523 MEMB     117      CHL1     C12      CRL2    -0.180000       12.0110           0
     13524 MEMB     117      CHL1     H12A     HGA2     0.900000E-01   1.00800           0
     13525 MEMB     117      CHL1     H12B     HGA2     0.900000E-01   1.00800           0
     13526 MEMB     117      CHL1     C11      CRL2    -0.180000       12.0110           0
     13527 MEMB     117      CHL1     H11A     HGA2     0.900000E-01   1.00800           0
     13528 MEMB     117      CHL1     H11B     HGA2     0.900000E-01   1.00800           0
     13529 MEMB     117      CHL1     C9       CRL1    -0.900000E-01   12.0110           0
     13530 MEMB     117      CHL1     H9       HGA1     0.900000E-01   1.00800           0
     13531 MEMB     117      CHL1     C10      CRL1      0.00000       12.0110           0
     13532 MEMB     117      CHL1     C19      CTL3    -0.270000       12.0110           0
     13533 MEMB     117      CHL1     H19A     HAL3     0.900000E-01   1.00800           0
     13534 MEMB     117      CHL1     H19B     HAL3     0.900000E-01   1.00800           0
     13535 MEMB     117      CHL1     H19C     HAL3     0.900000E-01   1.00800           0
     13536 MEMB     117      CHL1     C1       CRL2    -0.180000       12.0110           0
     13537 MEMB     117      CHL1     H1A      HGA2     0.900000E-01   1.00800           0
     13538 MEMB     117      CHL1     H1B      HGA2     0.900000E-01   1.00800           0
     13539 MEMB     117      CHL1     C2       CRL2    -0.180000       12.0110           0
     13540 MEMB     117      CHL1     H2A      HGA2     0.900000E-01   1.00800           0
     13541 MEMB     117      CHL1     H2B      HGA2     0.900000E-01   1.00800           0
     13542 MEMB     117      CHL1     C20      CTL1    -0.900000E-01   12.0110           0
     13543 MEMB     117      CHL1     H20      HAL1     0.900000E-01   1.00800           0
     13544 MEMB     117      CHL1     C21      CTL3    -0.270000       12.0110           0
     13545 MEMB     117      CHL1     H21A     HAL3     0.900000E-01   1.00800           0
     13546 MEMB     117      CHL1     H21B     HAL3     0.900000E-01   1.00800           0
     13547 MEMB     117      CHL1     H21C     HAL3     0.900000E-01   1.00800           0
     13548 MEMB     117      CHL1     C22      CTL2    -0.180000       12.0110           0
     13549 MEMB     117      CHL1     H22A     HAL2     0.900000E-01   1.00800           0
     13550 MEMB     117      CHL1     H22B     HAL2     0.900000E-01   1.00800           0
     13551 MEMB     117      CHL1     C23      CTL2    -0.180000       12.0110           0
     13552 MEMB     117      CHL1     H23A     HAL2     0.900000E-01   1.00800           0
     13553 MEMB     117      CHL1     H23B     HAL2     0.900000E-01   1.00800           0
     13554 MEMB     117      CHL1     C24      CTL2    -0.180000       12.0110           0
     13555 MEMB     117      CHL1     H24A     HAL2     0.900000E-01   1.00800           0
     13556 MEMB     117      CHL1     H24B     HAL2     0.900000E-01   1.00800           0
     13557 MEMB     117      CHL1     C25      CTL1    -0.900000E-01   12.0110           0
     13558 MEMB     117      CHL1     H25      HAL1     0.900000E-01   1.00800           0
     13559 MEMB     117      CHL1     C26      CTL3    -0.270000       12.0110           0
     13560 MEMB     117      CHL1     H26A     HAL3     0.900000E-01   1.00800           0
     13561 MEMB     117      CHL1     H26B     HAL3     0.900000E-01   1.00800           0
     13562 MEMB     117      CHL1     H26C     HAL3     0.900000E-01   1.00800           0
     13563 MEMB     117      CHL1     C27      CTL3    -0.270000       12.0110           0
     13564 MEMB     117      CHL1     H27A     HAL3     0.900000E-01   1.00800           0
     13565 MEMB     117      CHL1     H27B     HAL3     0.900000E-01   1.00800           0
     13566 MEMB     117      CHL1     H27C     HAL3     0.900000E-01   1.00800           0
     13567 MEMB     118      CHL1     C3       CRL1     0.140000       12.0110           0
     13568 MEMB     118      CHL1     H3       HGA1     0.900000E-01   1.00800           0
     13569 MEMB     118      CHL1     O3       OHL     -0.660000       15.9994           0
     13570 MEMB     118      CHL1     H3'      HOL      0.430000       1.00800           0
     13571 MEMB     118      CHL1     C4       CRL2    -0.180000       12.0110           0
     13572 MEMB     118      CHL1     H4A      HGA2     0.900000E-01   1.00800           0
     13573 MEMB     118      CHL1     H4B      HGA2     0.900000E-01   1.00800           0
     13574 MEMB     118      CHL1     C5       CEL1      0.00000       12.0110           0
     13575 MEMB     118      CHL1     C6       CEL1    -0.150000       12.0110           0
     13576 MEMB     118      CHL1     H6       HEL1     0.150000       1.00800           0
     13577 MEMB     118      CHL1     C7       CRL2    -0.180000       12.0110           0
     13578 MEMB     118      CHL1     H7A      HGA2     0.900000E-01   1.00800           0
     13579 MEMB     118      CHL1     H7B      HGA2     0.900000E-01   1.00800           0
     13580 MEMB     118      CHL1     C8       CRL1    -0.900000E-01   12.0110           0
     13581 MEMB     118      CHL1     H8       HGA1     0.900000E-01   1.00800           0
     13582 MEMB     118      CHL1     C14      CRL1    -0.900000E-01   12.0110           0
     13583 MEMB     118      CHL1     H14      HGA1     0.900000E-01   1.00800           0
     13584 MEMB     118      CHL1     C15      CRL2    -0.180000       12.0110           0
     13585 MEMB     118      CHL1     H15A     HGA2     0.900000E-01   1.00800           0
     13586 MEMB     118      CHL1     H15B     HGA2     0.900000E-01   1.00800           0
     13587 MEMB     118      CHL1     C16      CRL2    -0.180000       12.0110           0
     13588 MEMB     118      CHL1     H16A     HGA2     0.900000E-01   1.00800           0
     13589 MEMB     118      CHL1     H16B     HGA2     0.900000E-01   1.00800           0
     13590 MEMB     118      CHL1     C17      CRL1    -0.900000E-01   12.0110           0
     13591 MEMB     118      CHL1     H17      HGA1     0.900000E-01   1.00800           0
     13592 MEMB     118      CHL1     C13      CRL1      0.00000       12.0110           0
     13593 MEMB     118      CHL1     C18      CTL3    -0.270000       12.0110           0
     13594 MEMB     118      CHL1     H18A     HAL3     0.900000E-01   1.00800           0
     13595 MEMB     118      CHL1     H18B     HAL3     0.900000E-01   1.00800           0
     13596 MEMB     118      CHL1     H18C     HAL3     0.900000E-01   1.00800           0
     13597 MEMB     118      CHL1     C12      CRL2    -0.180000       12.0110           0
     13598 MEMB     118      CHL1     H12A     HGA2     0.900000E-01   1.00800           0
     13599 MEMB     118      CHL1     H12B     HGA2     0.900000E-01   1.00800           0
     13600 MEMB     118      CHL1     C11      CRL2    -0.180000       12.0110           0
     13601 MEMB     118      CHL1     H11A     HGA2     0.900000E-01   1.00800           0
     13602 MEMB     118      CHL1     H11B     HGA2     0.900000E-01   1.00800           0
     13603 MEMB     118      CHL1     C9       CRL1    -0.900000E-01   12.0110           0
     13604 MEMB     118      CHL1     H9       HGA1     0.900000E-01   1.00800           0
     13605 MEMB     118      CHL1     C10      CRL1      0.00000       12.0110           0
     13606 MEMB     118      CHL1     C19      CTL3    -0.270000       12.0110           0
     13607 MEMB     118      CHL1     H19A     HAL3     0.900000E-01   1.00800           0
     13608 MEMB     118      CHL1     H19B     HAL3     0.900000E-01   1.00800           0
     13609 MEMB     118      CHL1     H19C     HAL3     0.900000E-01   1.00800           0
     13610 MEMB     118      CHL1     C1       CRL2    -0.180000       12.0110           0
     13611 MEMB     118      CHL1     H1A      HGA2     0.900000E-01   1.00800           0
     13612 MEMB     118      CHL1     H1B      HGA2     0.900000E-01   1.00800           0
     13613 MEMB     118      CHL1     C2       CRL2    -0.180000       12.0110           0
     13614 MEMB     118      CHL1     H2A      HGA2     0.900000E-01   1.00800           0
     13615 MEMB     118      CHL1     H2B      HGA2     0.900000E-01   1.00800           0
     13616 MEMB     118      CHL1     C20      CTL1    -0.900000E-01   12.0110           0
     13617 MEMB     118      CHL1     H20      HAL1     0.900000E-01   1.00800           0
     13618 MEMB     118      CHL1     C21      CTL3    -0.270000       12.0110           0
     13619 MEMB     118      CHL1     H21A     HAL3     0.900000E-01   1.00800           0
     13620 MEMB     118      CHL1     H21B     HAL3     0.900000E-01   1.00800           0
     13621 MEMB     118      CHL1     H21C     HAL3     0.900000E-01   1.00800           0
     13622 MEMB     118      CHL1     C22      CTL2    -0.180000       12.0110           0
     13623 MEMB     118      CHL1     H22A     HAL2     0.900000E-01   1.00800           0
     13624 MEMB     118      CHL1     H22B     HAL2     0.900000E-01   1.00800           0
     13625 MEMB     118      CHL1     C23      CTL2    -0.180000       12.0110           0
     13626 MEMB     118      CHL1     H23A     HAL2     0.900000E-01   1.00800           0
     13627 MEMB     118      CHL1     H23B     HAL2     0.900000E-01   1.00800           0
     13628 MEMB     118      CHL1     C24      CTL2    -0.180000       12.0110           0
     13629 MEMB     118      CHL1     H24A     HAL2     0.900000E-01   1.00800           0
     13630 MEMB     118      CHL1     H24B     HAL2     0.900000E-01   1.00800           0
     13631 MEMB     118      CHL1     C25      CTL1    -0.900000E-01   12.0110           0
     13632 MEMB     118      CHL1     H25      HAL1     0.900000E-01   1.00800           0
     13633 MEMB     118      CHL1     C26      CTL3    -0.270000       12.0110           0
     13634 MEMB     118      CHL1     H26A     HAL3     0.900000E-01   1.00800           0
     13635 MEMB     118      CHL1     H26B     HAL3     0.900000E-01   1.00800           0
     13636 MEMB     118      CHL1     H26C     HAL3     0.900000E-01   1.00800           0
     13637 MEMB     118      CHL1     C27      CTL3    -0.270000       12.0110           0
     13638 MEMB     118      CHL1     H27A     HAL3     0.900000E-01   1.00800           0
     13639 MEMB     118      CHL1     H27B     HAL3     0.900000E-01   1.00800           0
     13640 MEMB     118      CHL1     H27C     HAL3     0.900000E-01   1.00800           0
     13641 MEMB     119      CHL1     C3       CRL1     0.140000       12.0110           0
     13642 MEMB     119      CHL1     H3       HGA1     0.900000E-01   1.00800           0
     13643 MEMB     119      CHL1     O3       OHL     -0.660000       15.9994           0
     13644 MEMB     119      CHL1     H3'      HOL      0.430000       1.00800           0
     13645 MEMB     119      CHL1     C4       CRL2    -0.180000       12.0110           0
     13646 MEMB     119      CHL1     H4A      HGA2     0.900000E-01   1.00800           0
     13647 MEMB     119      CHL1     H4B      HGA2     0.900000E-01   1.00800           0
     13648 MEMB     119      CHL1     C5       CEL1      0.00000       12.0110           0
     13649 MEMB     119      CHL1     C6       CEL1    -0.150000       12.0110           0
     13650 MEMB     119      CHL1     H6       HEL1     0.150000       1.00800           0
     13651 MEMB     119      CHL1     C7       CRL2    -0.180000       12.0110           0
     13652 MEMB     119      CHL1     H7A      HGA2     0.900000E-01   1.00800           0
     13653 MEMB     119      CHL1     H7B      HGA2     0.900000E-01   1.00800           0
     13654 MEMB     119      CHL1     C8       CRL1    -0.900000E-01   12.0110           0
     13655 MEMB     119      CHL1     H8       HGA1     0.900000E-01   1.00800           0
     13656 MEMB     119      CHL1     C14      CRL1    -0.900000E-01   12.0110           0
     13657 MEMB     119      CHL1     H14      HGA1     0.900000E-01   1.00800           0
     13658 MEMB     119      CHL1     C15      CRL2    -0.180000       12.0110           0
     13659 MEMB     119      CHL1     H15A     HGA2     0.900000E-01   1.00800           0
     13660 MEMB     119      CHL1     H15B     HGA2     0.900000E-01   1.00800           0
     13661 MEMB     119      CHL1     C16      CRL2    -0.180000       12.0110           0
     13662 MEMB     119      CHL1     H16A     HGA2     0.900000E-01   1.00800           0
     13663 MEMB     119      CHL1     H16B     HGA2     0.900000E-01   1.00800           0
     13664 MEMB     119      CHL1     C17      CRL1    -0.900000E-01   12.0110           0
     13665 MEMB     119      CHL1     H17      HGA1     0.900000E-01   1.00800           0
     13666 MEMB     119      CHL1     C13      CRL1      0.00000       12.0110           0
     13667 MEMB     119      CHL1     C18      CTL3    -0.270000       12.0110           0
     13668 MEMB     119      CHL1     H18A     HAL3     0.900000E-01   1.00800           0
     13669 MEMB     119      CHL1     H18B     HAL3     0.900000E-01   1.00800           0
     13670 MEMB     119      CHL1     H18C     HAL3     0.900000E-01   1.00800           0
     13671 MEMB     119      CHL1     C12      CRL2    -0.180000       12.0110           0
     13672 MEMB     119      CHL1     H12A     HGA2     0.900000E-01   1.00800           0
     13673 MEMB     119      CHL1     H12B     HGA2     0.900000E-01   1.00800           0
     13674 MEMB     119      CHL1     C11      CRL2    -0.180000       12.0110           0
     13675 MEMB     119      CHL1     H11A     HGA2     0.900000E-01   1.00800           0
     13676 MEMB     119      CHL1     H11B     HGA2     0.900000E-01   1.00800           0
     13677 MEMB     119      CHL1     C9       CRL1    -0.900000E-01   12.0110           0
     13678 MEMB     119      CHL1     H9       HGA1     0.900000E-01   1.00800           0
     13679 MEMB     119      CHL1     C10      CRL1      0.00000       12.0110           0
     13680 MEMB     119      CHL1     C19      CTL3    -0.270000       12.0110           0
     13681 MEMB     119      CHL1     H19A     HAL3     0.900000E-01   1.00800           0
     13682 MEMB     119      CHL1     H19B     HAL3     0.900000E-01   1.00800           0
     13683 MEMB     119      CHL1     H19C     HAL3     0.900000E-01   1.00800           0
     13684 MEMB     119      CHL1     C1       CRL2    -0.180000       12.0110           0
     13685 MEMB     119      CHL1     H1A      HGA2     0.900000E-01   1.00800           0
     13686 MEMB     119      CHL1     H1B      HGA2     0.900000E-01   1.00800           0
     13687 MEMB     119      CHL1     C2       CRL2    -0.180000       12.0110           0
     13688 MEMB     119      CHL1     H2A      HGA2     0.900000E-01   1.00800           0
     13689 MEMB     119      CHL1     H2B      HGA2     0.900000E-01   1.00800           0
     13690 MEMB     119      CHL1     C20      CTL1    -0.900000E-01   12.0110           0
     13691 MEMB     119      CHL1     H20      HAL1     0.900000E-01   1.00800           0
     13692 MEMB     119      CHL1     C21      CTL3    -0.270000       12.0110           0
     13693 MEMB     119      CHL1     H21A     HAL3     0.900000E-01   1.00800           0
     13694 MEMB     119      CHL1     H21B     HAL3     0.900000E-01   1.00800           0
     13695 MEMB     119      CHL1     H21C     HAL3     0.900000E-01   1.00800           0
     13696 MEMB     119      CHL1     C22      CTL2    -0.180000       12.0110           0
     13697 MEMB     119      CHL1     H22A     HAL2     0.900000E-01   1.00800           0
     13698 MEMB     119      CHL1     H22B     HAL2     0.900000E-01   1.00800           0
     13699 MEMB     119      CHL1     C23      CTL2    -0.180000       12.0110           0
     13700 MEMB     119      CHL1     H23A     HAL2     0.900000E-01   1.00800           0
     13701 MEMB     119      CHL1     H23B     HAL2     0.900000E-01   1.00800           0
     13702 MEMB     119      CHL1     C24      CTL2    -0.180000       12.0110           0
     13703 MEMB     119      CHL1     H24A     HAL2     0.900000E-01   1.00800           0
     13704 MEMB     119      CHL1     H24B     HAL2     0.900000E-01   1.00800           0
     13705 MEMB     119      CHL1     C25      CTL1    -0.900000E-01   12.0110           0
     13706 MEMB     119      CHL1     H25      HAL1     0.900000E-01   1.00800           0
     13707 MEMB     119      CHL1     C26      CTL3    -0.270000       12.0110           0
     13708 MEMB     119      CHL1     H26A     HAL3     0.900000E-01   1.00800           0
     13709 MEMB     119      CHL1     H26B     HAL3     0.900000E-01   1.00800           0
     13710 MEMB     119      CHL1     H26C     HAL3     0.900000E-01   1.00800           0
     13711 MEMB     119      CHL1     C27      CTL3    -0.270000       12.0110           0
     13712 MEMB     119      CHL1     H27A     HAL3     0.900000E-01   1.00800           0
     13713 MEMB     119      CHL1     H27B     HAL3     0.900000E-01   1.00800           0
     13714 MEMB     119      CHL1     H27C     HAL3     0.900000E-01   1.00800           0
     13715 MEMB     120      OSM      N        NTL     -0.600000       14.0070           0
     13716 MEMB     120      OSM      C15      CTL5    -0.350000       12.0110           0
     13717 MEMB     120      OSM      H15A     HL       0.250000       1.00800           0
     13718 MEMB     120      OSM      H15B     HL       0.250000       1.00800           0
     13719 MEMB     120      OSM      H15C     HL       0.250000       1.00800           0
     13720 MEMB     120      OSM      C14      CTL5    -0.350000       12.0110           0
     13721 MEMB     120      OSM      H14A     HL       0.250000       1.00800           0
     13722 MEMB     120      OSM      H14B     HL       0.250000       1.00800           0
     13723 MEMB     120      OSM      H14C     HL       0.250000       1.00800           0
     13724 MEMB     120      OSM      C13      CTL5    -0.350000       12.0110           0
     13725 MEMB     120      OSM      H13A     HL       0.250000       1.00800           0
     13726 MEMB     120      OSM      H13B     HL       0.250000       1.00800           0
     13727 MEMB     120      OSM      H13C     HL       0.250000       1.00800           0
     13728 MEMB     120      OSM      C12      CTL2    -0.100000       12.0110           0
     13729 MEMB     120      OSM      H12A     HL       0.250000       1.00800           0
     13730 MEMB     120      OSM      H12B     HL       0.250000       1.00800           0
     13731 MEMB     120      OSM      C11      CTL2    -0.800000E-01   12.0110           0
     13732 MEMB     120      OSM      H11A     HAL2     0.900000E-01   1.00800           0
     13733 MEMB     120      OSM      H11B     HAL2     0.900000E-01   1.00800           0
     13734 MEMB     120      OSM      P        PL        1.50000       30.9740           0
     13735 MEMB     120      OSM      O13      O2L     -0.780000       15.9994           0
     13736 MEMB     120      OSM      O14      O2L     -0.780000       15.9994           0
     13737 MEMB     120      OSM      O11      OSLP    -0.570000       15.9994           0
     13738 MEMB     120      OSM      O12      OSLP    -0.570000       15.9994           0
     13739 MEMB     120      OSM      C1S      CTL2    -0.800000E-01   12.0110           0
     13740 MEMB     120      OSM      H1S      HAL2     0.900000E-01   1.00800           0
     13741 MEMB     120      OSM      H1T      HAL2     0.900000E-01   1.00800           0
     13742 MEMB     120      OSM      NF       NHL     -0.700000       14.0070           0
     13743 MEMB     120      OSM      HNF      H        0.350000       1.00800           0
     13744 MEMB     120      OSM      C2S      CTL1     0.300000       12.0110           0
     13745 MEMB     120      OSM      H2S      HAL1     0.500000E-01   1.00800           0
     13746 MEMB     120      OSM      C3S      CTO1     0.500000       12.0110           0
     13747 MEMB     120      OSM      H3S      HAL1    -0.110000       1.00800           0
     13748 MEMB     120      OSM      O3       OHL     -0.690000       15.9994           0
     13749 MEMB     120      OSM      HO3      HOL      0.300000       1.00800           0
     13750 MEMB     120      OSM      C4S      CEL3    -0.150000       12.0110           0
     13751 MEMB     120      OSM      H4S      HEL1     0.150000       1.00800           0
     13752 MEMB     120      OSM      C5S      CEL3    -0.150000       12.0110           0
     13753 MEMB     120      OSM      H5S      HEL1     0.150000       1.00800           0
     13754 MEMB     120      OSM      C6S      CTL2    -0.180000       12.0110           0
     13755 MEMB     120      OSM      H6S      HAL2     0.900000E-01   1.00800           0
     13756 MEMB     120      OSM      H6T      HAL2     0.900000E-01   1.00800           0
     13757 MEMB     120      OSM      C7S      CTL2    -0.180000       12.0110           0
     13758 MEMB     120      OSM      H7S      HAL2     0.900000E-01   1.00800           0
     13759 MEMB     120      OSM      H7T      HAL2     0.900000E-01   1.00800           0
     13760 MEMB     120      OSM      C8S      CTL2    -0.180000       12.0110           0
     13761 MEMB     120      OSM      H8S      HAL2     0.900000E-01   1.00800           0
     13762 MEMB     120      OSM      H8T      HAL2     0.900000E-01   1.00800           0
     13763 MEMB     120      OSM      C9S      CTL2    -0.180000       12.0110           0
     13764 MEMB     120      OSM      H9S      HAL2     0.900000E-01   1.00800           0
     13765 MEMB     120      OSM      H9T      HAL2     0.900000E-01   1.00800           0
     13766 MEMB     120      OSM      C10S     CTL2    -0.180000       12.0110           0
     13767 MEMB     120      OSM      H10S     HAL2     0.900000E-01   1.00800           0
     13768 MEMB     120      OSM      H10T     HAL2     0.900000E-01   1.00800           0
     13769 MEMB     120      OSM      C11S     CTL2    -0.180000       12.0110           0
     13770 MEMB     120      OSM      H11S     HAL2     0.900000E-01   1.00800           0
     13771 MEMB     120      OSM      H11T     HAL2     0.900000E-01   1.00800           0
     13772 MEMB     120      OSM      C12S     CTL2    -0.180000       12.0110           0
     13773 MEMB     120      OSM      H12S     HAL2     0.900000E-01   1.00800           0
     13774 MEMB     120      OSM      H12T     HAL2     0.900000E-01   1.00800           0
     13775 MEMB     120      OSM      C13S     CTL2    -0.180000       12.0110           0
     13776 MEMB     120      OSM      H13S     HAL2     0.900000E-01   1.00800           0
     13777 MEMB     120      OSM      H13T     HAL2     0.900000E-01   1.00800           0
     13778 MEMB     120      OSM      C14S     CTL2    -0.180000       12.0110           0
     13779 MEMB     120      OSM      H14S     HAL2     0.900000E-01   1.00800           0
     13780 MEMB     120      OSM      H14T     HAL2     0.900000E-01   1.00800           0
     13781 MEMB     120      OSM      C15S     CTL2    -0.180000       12.0110           0
     13782 MEMB     120      OSM      H15S     HAL2     0.900000E-01   1.00800           0
     13783 MEMB     120      OSM      H15T     HAL2     0.900000E-01   1.00800           0
     13784 MEMB     120      OSM      C16S     CTL2    -0.180000       12.0110           0
     13785 MEMB     120      OSM      H16S     HAL2     0.900000E-01   1.00800           0
     13786 MEMB     120      OSM      H16T     HAL2     0.900000E-01   1.00800           0
     13787 MEMB     120      OSM      C17S     CTL2    -0.180000       12.0110           0
     13788 MEMB     120      OSM      H17S     HAL2     0.900000E-01   1.00800           0
     13789 MEMB     120      OSM      H17T     HAL2     0.900000E-01   1.00800           0
     13790 MEMB     120      OSM      C18S     CTL3    -0.270000       12.0110           0
     13791 MEMB     120      OSM      H18S     HAL3     0.900000E-01   1.00800           0
     13792 MEMB     120      OSM      H18T     HAL3     0.900000E-01   1.00800           0
     13793 MEMB     120      OSM      H18U     HAL3     0.900000E-01   1.00800           0
     13794 MEMB     120      OSM      C1F      C        0.550000       12.0110           0
     13795 MEMB     120      OSM      OF       O       -0.600000       15.9994           0
     13796 MEMB     120      OSM      C2F      CTL2    -0.700000E-01   12.0110           0
     13797 MEMB     120      OSM      H2F      HAL2     0.600000E-01   1.00800           0
     13798 MEMB     120      OSM      H2G      HAL2     0.600000E-01   1.00800           0
     13799 MEMB     120      OSM      C3F      CTL2    -0.180000       12.0110           0
     13800 MEMB     120      OSM      H3F      HAL2     0.900000E-01   1.00800           0
     13801 MEMB     120      OSM      H3G      HAL2     0.900000E-01   1.00800           0
     13802 MEMB     120      OSM      C4F      CTL2    -0.180000       12.0110           0
     13803 MEMB     120      OSM      H4F      HAL2     0.900000E-01   1.00800           0
     13804 MEMB     120      OSM      H4G      HAL2     0.900000E-01   1.00800           0
     13805 MEMB     120      OSM      C5F      CTL2    -0.180000       12.0110           0
     13806 MEMB     120      OSM      H5F      HAL2     0.900000E-01   1.00800           0
     13807 MEMB     120      OSM      H5G      HAL2     0.900000E-01   1.00800           0
     13808 MEMB     120      OSM      C6F      CTL2    -0.180000       12.0110           0
     13809 MEMB     120      OSM      H6F      HAL2     0.900000E-01   1.00800           0
     13810 MEMB     120      OSM      H6G      HAL2     0.900000E-01   1.00800           0
     13811 MEMB     120      OSM      C7F      CTL2    -0.180000       12.0110           0
     13812 MEMB     120      OSM      H7F      HAL2     0.900000E-01   1.00800           0
     13813 MEMB     120      OSM      H7G      HAL2     0.900000E-01   1.00800           0
     13814 MEMB     120      OSM      C8F      CTL2    -0.180000       12.0110           0
     13815 MEMB     120      OSM      H8F      HAL2     0.900000E-01   1.00800           0
     13816 MEMB     120      OSM      H8G      HAL2     0.900000E-01   1.00800           0
     13817 MEMB     120      OSM      C9F      CEL1    -0.150000       12.0110           0
     13818 MEMB     120      OSM      H9F      HEL1     0.150000       1.00800           0
     13819 MEMB     120      OSM      C10F     CEL1    -0.150000       12.0110           0
     13820 MEMB     120      OSM      H10F     HEL1     0.150000       1.00800           0
     13821 MEMB     120      OSM      C11F     CTL2    -0.180000       12.0110           0
     13822 MEMB     120      OSM      H11F     HAL2     0.900000E-01   1.00800           0
     13823 MEMB     120      OSM      H11G     HAL2     0.900000E-01   1.00800           0
     13824 MEMB     120      OSM      C12F     CTL2    -0.180000       12.0110           0
     13825 MEMB     120      OSM      H12F     HAL2     0.900000E-01   1.00800           0
     13826 MEMB     120      OSM      H12G     HAL2     0.900000E-01   1.00800           0
     13827 MEMB     120      OSM      C13F     CTL2    -0.180000       12.0110           0
     13828 MEMB     120      OSM      H13F     HAL2     0.900000E-01   1.00800           0
     13829 MEMB     120      OSM      H13G     HAL2     0.900000E-01   1.00800           0
     13830 MEMB     120      OSM      C14F     CTL2    -0.180000       12.0110           0
     13831 MEMB     120      OSM      H14F     HAL2     0.900000E-01   1.00800           0
     13832 MEMB     120      OSM      H14G     HAL2     0.900000E-01   1.00800           0
     13833 MEMB     120      OSM      C15F     CTL2    -0.180000       12.0110           0
     13834 MEMB     120      OSM      H15F     HAL2     0.900000E-01   1.00800           0
     13835 MEMB     120      OSM      H15G     HAL2     0.900000E-01   1.00800           0
     13836 MEMB     120      OSM      C16F     CTL2    -0.180000       12.0110           0
     13837 MEMB     120      OSM      H16F     HAL2     0.900000E-01   1.00800           0
     13838 MEMB     120      OSM      H16G     HAL2     0.900000E-01   1.00800           0
     13839 MEMB     120      OSM      C17F     CTL2    -0.180000       12.0110           0
     13840 MEMB     120      OSM      H17F     HAL2     0.900000E-01   1.00800           0
     13841 MEMB     120      OSM      H17G     HAL2     0.900000E-01   1.00800           0
     13842 MEMB     120      OSM      C18F     CTL3    -0.270000       12.0110           0
     13843 MEMB     120      OSM      H18F     HAL3     0.900000E-01   1.00800           0
     13844 MEMB     120      OSM      H18G     HAL3     0.900000E-01   1.00800           0
     13845 MEMB     120      OSM      H18H     HAL3     0.900000E-01   1.00800           0
     13846 MEMB     121      SAPS     N        NH3L    -0.300000       14.0070           0
     13847 MEMB     121      SAPS     HN1      HCL      0.330000       1.00800           0
     13848 MEMB     121      SAPS     HN2      HCL      0.330000       1.00800           0
     13849 MEMB     121      SAPS     HN3      HCL      0.330000       1.00800           0
     13850 MEMB     121      SAPS     C12      CTL1     0.210000       12.0110           0
     13851 MEMB     121      SAPS     H12A     HBL      0.100000       1.00800           0
     13852 MEMB     121      SAPS     C13      CCL      0.340000       12.0110           0
     13853 MEMB     121      SAPS     O13A     OCL     -0.670000       15.9994           0
     13854 MEMB     121      SAPS     O13B     OCL     -0.670000       15.9994           0
     13855 MEMB     121      SAPS     C11      CTL2    -0.800000E-01   12.0110           0
     13856 MEMB     121      SAPS     H11A     HAL2     0.900000E-01   1.00800           0
     13857 MEMB     121      SAPS     H11B     HAL2     0.900000E-01   1.00800           0
     13858 MEMB     121      SAPS     P        PL        1.50000       30.9740           0
     13859 MEMB     121      SAPS     O13      O2L     -0.780000       15.9994           0
     13860 MEMB     121      SAPS     O14      O2L     -0.780000       15.9994           0
     13861 MEMB     121      SAPS     O12      OSLP    -0.570000       15.9994           0
     13862 MEMB     121      SAPS     O11      OSLP    -0.570000       15.9994           0
     13863 MEMB     121      SAPS     C1       CTL2    -0.800000E-01   12.0110           0
     13864 MEMB     121      SAPS     HA       HAL2     0.900000E-01   1.00800           0
     13865 MEMB     121      SAPS     HB       HAL2     0.900000E-01   1.00800           0
     13866 MEMB     121      SAPS     C2       CTL1     0.170000       12.0110           0
     13867 MEMB     121      SAPS     HS       HAL1     0.900000E-01   1.00800           0
     13868 MEMB     121      SAPS     O21      OSL     -0.490000       15.9994           0
     13869 MEMB     121      SAPS     C21      CL       0.900000       12.0110           0
     13870 MEMB     121      SAPS     O22      OBL     -0.630000       15.9994           0
     13871 MEMB     121      SAPS     C22      CTL2    -0.220000       12.0110           0
     13872 MEMB     121      SAPS     H2R      HAL2     0.900000E-01   1.00800           0
     13873 MEMB     121      SAPS     H2S      HAL2     0.900000E-01   1.00800           0
     13874 MEMB     121      SAPS     C3       CTL2     0.800000E-01   12.0110           0
     13875 MEMB     121      SAPS     HX       HAL2     0.900000E-01   1.00800           0
     13876 MEMB     121      SAPS     HY       HAL2     0.900000E-01   1.00800           0
     13877 MEMB     121      SAPS     O31      OSL     -0.490000       15.9994           0
     13878 MEMB     121      SAPS     C31      CL       0.900000       12.0110           0
     13879 MEMB     121      SAPS     O32      OBL     -0.630000       15.9994           0
     13880 MEMB     121      SAPS     C32      CTL2    -0.220000       12.0110           0
     13881 MEMB     121      SAPS     H2X      HAL2     0.900000E-01   1.00800           0
     13882 MEMB     121      SAPS     H2Y      HAL2     0.900000E-01   1.00800           0
     13883 MEMB     121      SAPS     C23      CTL2    -0.180000       12.0110           0
     13884 MEMB     121      SAPS     H3R      HAL2     0.900000E-01   1.00800           0
     13885 MEMB     121      SAPS     H3S      HAL2     0.900000E-01   1.00800           0
     13886 MEMB     121      SAPS     C24      CTL2    -0.180000       12.0110           0
     13887 MEMB     121      SAPS     H4R      HAL2     0.900000E-01   1.00800           0
     13888 MEMB     121      SAPS     H4S      HAL2     0.900000E-01   1.00800           0
     13889 MEMB     121      SAPS     C25      CEL1    -0.150000       12.0110           0
     13890 MEMB     121      SAPS     H5R      HEL1     0.150000       1.00800           0
     13891 MEMB     121      SAPS     C26      CEL1    -0.150000       12.0110           0
     13892 MEMB     121      SAPS     H6R      HEL1     0.150000       1.00800           0
     13893 MEMB     121      SAPS     C27      CTL2    -0.180000       12.0110           0
     13894 MEMB     121      SAPS     H7R      HAL2     0.900000E-01   1.00800           0
     13895 MEMB     121      SAPS     H7S      HAL2     0.900000E-01   1.00800           0
     13896 MEMB     121      SAPS     C28      CEL1    -0.150000       12.0110           0
     13897 MEMB     121      SAPS     H8R      HEL1     0.150000       1.00800           0
     13898 MEMB     121      SAPS     C29      CEL1    -0.150000       12.0110           0
     13899 MEMB     121      SAPS     H9R      HEL1     0.150000       1.00800           0
     13900 MEMB     121      SAPS     C210     CTL2    -0.180000       12.0110           0
     13901 MEMB     121      SAPS     H10R     HAL2     0.900000E-01   1.00800           0
     13902 MEMB     121      SAPS     H10S     HAL2     0.900000E-01   1.00800           0
     13903 MEMB     121      SAPS     C211     CEL1    -0.150000       12.0110           0
     13904 MEMB     121      SAPS     H11R     HEL1     0.150000       1.00800           0
     13905 MEMB     121      SAPS     C212     CEL1    -0.150000       12.0110           0
     13906 MEMB     121      SAPS     H12R     HEL1     0.150000       1.00800           0
     13907 MEMB     121      SAPS     C213     CTL2    -0.180000       12.0110           0
     13908 MEMB     121      SAPS     H13R     HAL2     0.900000E-01   1.00800           0
     13909 MEMB     121      SAPS     H13S     HAL2     0.900000E-01   1.00800           0
     13910 MEMB     121      SAPS     C214     CEL1    -0.150000       12.0110           0
     13911 MEMB     121      SAPS     H14R     HEL1     0.150000       1.00800           0
     13912 MEMB     121      SAPS     C215     CEL1    -0.150000       12.0110           0
     13913 MEMB     121      SAPS     H15R     HEL1     0.150000       1.00800           0
     13914 MEMB     121      SAPS     C216     CTL2    -0.180000       12.0110           0
     13915 MEMB     121      SAPS     H16R     HAL2     0.900000E-01   1.00800           0
     13916 MEMB     121      SAPS     H16S     HAL2     0.900000E-01   1.00800           0
     13917 MEMB     121      SAPS     C217     CTL2    -0.180000       12.0110           0
     13918 MEMB     121      SAPS     H17R     HAL2     0.900000E-01   1.00800           0
     13919 MEMB     121      SAPS     H17S     HAL2     0.900000E-01   1.00800           0
     13920 MEMB     121      SAPS     C218     CTL2    -0.180000       12.0110           0
     13921 MEMB     121      SAPS     H18R     HAL2     0.900000E-01   1.00800           0
     13922 MEMB     121      SAPS     H18S     HAL2     0.900000E-01   1.00800           0
     13923 MEMB     121      SAPS     C219     CTL2    -0.180000       12.0110           0
     13924 MEMB     121      SAPS     H19R     HAL2     0.900000E-01   1.00800           0
     13925 MEMB     121      SAPS     H19S     HAL2     0.900000E-01   1.00800           0
     13926 MEMB     121      SAPS     C220     CTL3    -0.270000       12.0110           0
     13927 MEMB     121      SAPS     H20R     HAL3     0.900000E-01   1.00800           0
     13928 MEMB     121      SAPS     H20S     HAL3     0.900000E-01   1.00800           0
     13929 MEMB     121      SAPS     H20T     HAL3     0.900000E-01   1.00800           0
     13930 MEMB     121      SAPS     C33      CTL2    -0.180000       12.0110           0
     13931 MEMB     121      SAPS     H3X      HAL2     0.900000E-01   1.00800           0
     13932 MEMB     121      SAPS     H3Y      HAL2     0.900000E-01   1.00800           0
     13933 MEMB     121      SAPS     C34      CTL2    -0.180000       12.0110           0
     13934 MEMB     121      SAPS     H4X      HAL2     0.900000E-01   1.00800           0
     13935 MEMB     121      SAPS     H4Y      HAL2     0.900000E-01   1.00800           0
     13936 MEMB     121      SAPS     C35      CTL2    -0.180000       12.0110           0
     13937 MEMB     121      SAPS     H5X      HAL2     0.900000E-01   1.00800           0
     13938 MEMB     121      SAPS     H5Y      HAL2     0.900000E-01   1.00800           0
     13939 MEMB     121      SAPS     C36      CTL2    -0.180000       12.0110           0
     13940 MEMB     121      SAPS     H6X      HAL2     0.900000E-01   1.00800           0
     13941 MEMB     121      SAPS     H6Y      HAL2     0.900000E-01   1.00800           0
     13942 MEMB     121      SAPS     C37      CTL2    -0.180000       12.0110           0
     13943 MEMB     121      SAPS     H7X      HAL2     0.900000E-01   1.00800           0
     13944 MEMB     121      SAPS     H7Y      HAL2     0.900000E-01   1.00800           0
     13945 MEMB     121      SAPS     C38      CTL2    -0.180000       12.0110           0
     13946 MEMB     121      SAPS     H8X      HAL2     0.900000E-01   1.00800           0
     13947 MEMB     121      SAPS     H8Y      HAL2     0.900000E-01   1.00800           0
     13948 MEMB     121      SAPS     C39      CTL2    -0.180000       12.0110           0
     13949 MEMB     121      SAPS     H9X      HAL2     0.900000E-01   1.00800           0
     13950 MEMB     121      SAPS     H9Y      HAL2     0.900000E-01   1.00800           0
     13951 MEMB     121      SAPS     C310     CTL2    -0.180000       12.0110           0
     13952 MEMB     121      SAPS     H10X     HAL2     0.900000E-01   1.00800           0
     13953 MEMB     121      SAPS     H10Y     HAL2     0.900000E-01   1.00800           0
     13954 MEMB     121      SAPS     C311     CTL2    -0.180000       12.0110           0
     13955 MEMB     121      SAPS     H11X     HAL2     0.900000E-01   1.00800           0
     13956 MEMB     121      SAPS     H11Y     HAL2     0.900000E-01   1.00800           0
     13957 MEMB     121      SAPS     C312     CTL2    -0.180000       12.0110           0
     13958 MEMB     121      SAPS     H12X     HAL2     0.900000E-01   1.00800           0
     13959 MEMB     121      SAPS     H12Y     HAL2     0.900000E-01   1.00800           0
     13960 MEMB     121      SAPS     C313     CTL2    -0.180000       12.0110           0
     13961 MEMB     121      SAPS     H13X     HAL2     0.900000E-01   1.00800           0
     13962 MEMB     121      SAPS     H13Y     HAL2     0.900000E-01   1.00800           0
     13963 MEMB     121      SAPS     C314     CTL2    -0.180000       12.0110           0
     13964 MEMB     121      SAPS     H14X     HAL2     0.900000E-01   1.00800           0
     13965 MEMB     121      SAPS     H14Y     HAL2     0.900000E-01   1.00800           0
     13966 MEMB     121      SAPS     C315     CTL2    -0.180000       12.0110           0
     13967 MEMB     121      SAPS     H15X     HAL2     0.900000E-01   1.00800           0
     13968 MEMB     121      SAPS     H15Y     HAL2     0.900000E-01   1.00800           0
     13969 MEMB     121      SAPS     C316     CTL2    -0.180000       12.0110           0
     13970 MEMB     121      SAPS     H16X     HAL2     0.900000E-01   1.00800           0
     13971 MEMB     121      SAPS     H16Y     HAL2     0.900000E-01   1.00800           0
     13972 MEMB     121      SAPS     C317     CTL2    -0.180000       12.0110           0
     13973 MEMB     121      SAPS     H17X     HAL2     0.900000E-01   1.00800           0
     13974 MEMB     121      SAPS     H17Y     HAL2     0.900000E-01   1.00800           0
     13975 MEMB     121      SAPS     C318     CTL3    -0.270000       12.0110           0
     13976 MEMB     121      SAPS     H18X     HAL3     0.900000E-01   1.00800           0
     13977 MEMB     121      SAPS     H18Y     HAL3     0.900000E-01   1.00800           0
     13978 MEMB     121      SAPS     H18Z     HAL3     0.900000E-01   1.00800           0
     13979 MEMB     122      SAPE     N        NH3L    -0.300000       14.0070           0
     13980 MEMB     122      SAPE     HN1      HCL      0.330000       1.00800           0
     13981 MEMB     122      SAPE     HN2      HCL      0.330000       1.00800           0
     13982 MEMB     122      SAPE     HN3      HCL      0.330000       1.00800           0
     13983 MEMB     122      SAPE     C12      CTL2     0.130000       12.0110           0
     13984 MEMB     122      SAPE     H12A     HAL2     0.900000E-01   1.00800           0
     13985 MEMB     122      SAPE     H12B     HAL2     0.900000E-01   1.00800           0
     13986 MEMB     122      SAPE     C11      CTL2    -0.800000E-01   12.0110           0
     13987 MEMB     122      SAPE     H11A     HAL2     0.900000E-01   1.00800           0
     13988 MEMB     122      SAPE     H11B     HAL2     0.900000E-01   1.00800           0
     13989 MEMB     122      SAPE     P        PL        1.50000       30.9740           0
     13990 MEMB     122      SAPE     O13      O2L     -0.780000       15.9994           0
     13991 MEMB     122      SAPE     O14      O2L     -0.780000       15.9994           0
     13992 MEMB     122      SAPE     O12      OSLP    -0.570000       15.9994           0
     13993 MEMB     122      SAPE     O11      OSLP    -0.570000       15.9994           0
     13994 MEMB     122      SAPE     C1       CTL2    -0.800000E-01   12.0110           0
     13995 MEMB     122      SAPE     HA       HAL2     0.900000E-01   1.00800           0
     13996 MEMB     122      SAPE     HB       HAL2     0.900000E-01   1.00800           0
     13997 MEMB     122      SAPE     C2       CTL1     0.170000       12.0110           0
     13998 MEMB     122      SAPE     HS       HAL1     0.900000E-01   1.00800           0
     13999 MEMB     122      SAPE     O21      OSL     -0.490000       15.9994           0
     14000 MEMB     122      SAPE     C21      CL       0.900000       12.0110           0
     14001 MEMB     122      SAPE     O22      OBL     -0.630000       15.9994           0
     14002 MEMB     122      SAPE     C22      CTL2    -0.220000       12.0110           0
     14003 MEMB     122      SAPE     H2R      HAL2     0.900000E-01   1.00800           0
     14004 MEMB     122      SAPE     H2S      HAL2     0.900000E-01   1.00800           0
     14005 MEMB     122      SAPE     C3       CTL2     0.800000E-01   12.0110           0
     14006 MEMB     122      SAPE     HX       HAL2     0.900000E-01   1.00800           0
     14007 MEMB     122      SAPE     HY       HAL2     0.900000E-01   1.00800           0
     14008 MEMB     122      SAPE     O31      OSL     -0.490000       15.9994           0
     14009 MEMB     122      SAPE     C31      CL       0.900000       12.0110           0
     14010 MEMB     122      SAPE     O32      OBL     -0.630000       15.9994           0
     14011 MEMB     122      SAPE     C32      CTL2    -0.220000       12.0110           0
     14012 MEMB     122      SAPE     H2X      HAL2     0.900000E-01   1.00800           0
     14013 MEMB     122      SAPE     H2Y      HAL2     0.900000E-01   1.00800           0
     14014 MEMB     122      SAPE     C23      CTL2    -0.180000       12.0110           0
     14015 MEMB     122      SAPE     H3R      HAL2     0.900000E-01   1.00800           0
     14016 MEMB     122      SAPE     H3S      HAL2     0.900000E-01   1.00800           0
     14017 MEMB     122      SAPE     C24      CTL2    -0.180000       12.0110           0
     14018 MEMB     122      SAPE     H4R      HAL2     0.900000E-01   1.00800           0
     14019 MEMB     122      SAPE     H4S      HAL2     0.900000E-01   1.00800           0
     14020 MEMB     122      SAPE     C25      CEL1    -0.150000       12.0110           0
     14021 MEMB     122      SAPE     H5R      HEL1     0.150000       1.00800           0
     14022 MEMB     122      SAPE     C26      CEL1    -0.150000       12.0110           0
     14023 MEMB     122      SAPE     H6R      HEL1     0.150000       1.00800           0
     14024 MEMB     122      SAPE     C27      CTL2    -0.180000       12.0110           0
     14025 MEMB     122      SAPE     H7R      HAL2     0.900000E-01   1.00800           0
     14026 MEMB     122      SAPE     H7S      HAL2     0.900000E-01   1.00800           0
     14027 MEMB     122      SAPE     C28      CEL1    -0.150000       12.0110           0
     14028 MEMB     122      SAPE     H8R      HEL1     0.150000       1.00800           0
     14029 MEMB     122      SAPE     C29      CEL1    -0.150000       12.0110           0
     14030 MEMB     122      SAPE     H9R      HEL1     0.150000       1.00800           0
     14031 MEMB     122      SAPE     C210     CTL2    -0.180000       12.0110           0
     14032 MEMB     122      SAPE     H10R     HAL2     0.900000E-01   1.00800           0
     14033 MEMB     122      SAPE     H10S     HAL2     0.900000E-01   1.00800           0
     14034 MEMB     122      SAPE     C211     CEL1    -0.150000       12.0110           0
     14035 MEMB     122      SAPE     H11R     HEL1     0.150000       1.00800           0
     14036 MEMB     122      SAPE     C212     CEL1    -0.150000       12.0110           0
     14037 MEMB     122      SAPE     H12R     HEL1     0.150000       1.00800           0
     14038 MEMB     122      SAPE     C213     CTL2    -0.180000       12.0110           0
     14039 MEMB     122      SAPE     H13R     HAL2     0.900000E-01   1.00800           0
     14040 MEMB     122      SAPE     H13S     HAL2     0.900000E-01   1.00800           0
     14041 MEMB     122      SAPE     C214     CEL1    -0.150000       12.0110           0
     14042 MEMB     122      SAPE     H14R     HEL1     0.150000       1.00800           0
     14043 MEMB     122      SAPE     C215     CEL1    -0.150000       12.0110           0
     14044 MEMB     122      SAPE     H15R     HEL1     0.150000       1.00800           0
     14045 MEMB     122      SAPE     C216     CTL2    -0.180000       12.0110           0
     14046 MEMB     122      SAPE     H16R     HAL2     0.900000E-01   1.00800           0
     14047 MEMB     122      SAPE     H16S     HAL2     0.900000E-01   1.00800           0
     14048 MEMB     122      SAPE     C217     CTL2    -0.180000       12.0110           0
     14049 MEMB     122      SAPE     H17R     HAL2     0.900000E-01   1.00800           0
     14050 MEMB     122      SAPE     H17S     HAL2     0.900000E-01   1.00800           0
     14051 MEMB     122      SAPE     C218     CTL2    -0.180000       12.0110           0
     14052 MEMB     122      SAPE     H18R     HAL2     0.900000E-01   1.00800           0
     14053 MEMB     122      SAPE     H18S     HAL2     0.900000E-01   1.00800           0
     14054 MEMB     122      SAPE     C219     CTL2    -0.180000       12.0110           0
     14055 MEMB     122      SAPE     H19R     HAL2     0.900000E-01   1.00800           0
     14056 MEMB     122      SAPE     H19S     HAL2     0.900000E-01   1.00800           0
     14057 MEMB     122      SAPE     C220     CTL3    -0.270000       12.0110           0
     14058 MEMB     122      SAPE     H20R     HAL3     0.900000E-01   1.00800           0
     14059 MEMB     122      SAPE     H20S     HAL3     0.900000E-01   1.00800           0
     14060 MEMB     122      SAPE     H20T     HAL3     0.900000E-01   1.00800           0
     14061 MEMB     122      SAPE     C33      CTL2    -0.180000       12.0110           0
     14062 MEMB     122      SAPE     H3X      HAL2     0.900000E-01   1.00800           0
     14063 MEMB     122      SAPE     H3Y      HAL2     0.900000E-01   1.00800           0
     14064 MEMB     122      SAPE     C34      CTL2    -0.180000       12.0110           0
     14065 MEMB     122      SAPE     H4X      HAL2     0.900000E-01   1.00800           0
     14066 MEMB     122      SAPE     H4Y      HAL2     0.900000E-01   1.00800           0
     14067 MEMB     122      SAPE     C35      CTL2    -0.180000       12.0110           0
     14068 MEMB     122      SAPE     H5X      HAL2     0.900000E-01   1.00800           0
     14069 MEMB     122      SAPE     H5Y      HAL2     0.900000E-01   1.00800           0
     14070 MEMB     122      SAPE     C36      CTL2    -0.180000       12.0110           0
     14071 MEMB     122      SAPE     H6X      HAL2     0.900000E-01   1.00800           0
     14072 MEMB     122      SAPE     H6Y      HAL2     0.900000E-01   1.00800           0
     14073 MEMB     122      SAPE     C37      CTL2    -0.180000       12.0110           0
     14074 MEMB     122      SAPE     H7X      HAL2     0.900000E-01   1.00800           0
     14075 MEMB     122      SAPE     H7Y      HAL2     0.900000E-01   1.00800           0
     14076 MEMB     122      SAPE     C38      CTL2    -0.180000       12.0110           0
     14077 MEMB     122      SAPE     H8X      HAL2     0.900000E-01   1.00800           0
     14078 MEMB     122      SAPE     H8Y      HAL2     0.900000E-01   1.00800           0
     14079 MEMB     122      SAPE     C39      CTL2    -0.180000       12.0110           0
     14080 MEMB     122      SAPE     H9X      HAL2     0.900000E-01   1.00800           0
     14081 MEMB     122      SAPE     H9Y      HAL2     0.900000E-01   1.00800           0
     14082 MEMB     122      SAPE     C310     CTL2    -0.180000       12.0110           0
     14083 MEMB     122      SAPE     H10X     HAL2     0.900000E-01   1.00800           0
     14084 MEMB     122      SAPE     H10Y     HAL2     0.900000E-01   1.00800           0
     14085 MEMB     122      SAPE     C311     CTL2    -0.180000       12.0110           0
     14086 MEMB     122      SAPE     H11X     HAL2     0.900000E-01   1.00800           0
     14087 MEMB     122      SAPE     H11Y     HAL2     0.900000E-01   1.00800           0
     14088 MEMB     122      SAPE     C312     CTL2    -0.180000       12.0110           0
     14089 MEMB     122      SAPE     H12X     HAL2     0.900000E-01   1.00800           0
     14090 MEMB     122      SAPE     H12Y     HAL2     0.900000E-01   1.00800           0
     14091 MEMB     122      SAPE     C313     CTL2    -0.180000       12.0110           0
     14092 MEMB     122      SAPE     H13X     HAL2     0.900000E-01   1.00800           0
     14093 MEMB     122      SAPE     H13Y     HAL2     0.900000E-01   1.00800           0
     14094 MEMB     122      SAPE     C314     CTL2    -0.180000       12.0110           0
     14095 MEMB     122      SAPE     H14X     HAL2     0.900000E-01   1.00800           0
     14096 MEMB     122      SAPE     H14Y     HAL2     0.900000E-01   1.00800           0
     14097 MEMB     122      SAPE     C315     CTL2    -0.180000       12.0110           0
     14098 MEMB     122      SAPE     H15X     HAL2     0.900000E-01   1.00800           0
     14099 MEMB     122      SAPE     H15Y     HAL2     0.900000E-01   1.00800           0
     14100 MEMB     122      SAPE     C316     CTL2    -0.180000       12.0110           0
     14101 MEMB     122      SAPE     H16X     HAL2     0.900000E-01   1.00800           0
     14102 MEMB     122      SAPE     H16Y     HAL2     0.900000E-01   1.00800           0
     14103 MEMB     122      SAPE     C317     CTL2    -0.180000       12.0110           0
     14104 MEMB     122      SAPE     H17X     HAL2     0.900000E-01   1.00800           0
     14105 MEMB     122      SAPE     H17Y     HAL2     0.900000E-01   1.00800           0
     14106 MEMB     122      SAPE     C318     CTL3    -0.270000       12.0110           0
     14107 MEMB     122      SAPE     H18X     HAL3     0.900000E-01   1.00800           0
     14108 MEMB     122      SAPE     H18Y     HAL3     0.900000E-01   1.00800           0
     14109 MEMB     122      SAPE     H18Z     HAL3     0.900000E-01   1.00800           0
     14110 MEMB     123      CHL1     C3       CRL1     0.140000       12.0110           0
     14111 MEMB     123      CHL1     H3       HGA1     0.900000E-01   1.00800           0
     14112 MEMB     123      CHL1     O3       OHL     -0.660000       15.9994           0
     14113 MEMB     123      CHL1     H3'      HOL      0.430000       1.00800           0
     14114 MEMB     123      CHL1     C4       CRL2    -0.180000       12.0110           0
     14115 MEMB     123      CHL1     H4A      HGA2     0.900000E-01   1.00800           0
     14116 MEMB     123      CHL1     H4B      HGA2     0.900000E-01   1.00800           0
     14117 MEMB     123      CHL1     C5       CEL1      0.00000       12.0110           0
     14118 MEMB     123      CHL1     C6       CEL1    -0.150000       12.0110           0
     14119 MEMB     123      CHL1     H6       HEL1     0.150000       1.00800           0
     14120 MEMB     123      CHL1     C7       CRL2    -0.180000       12.0110           0
     14121 MEMB     123      CHL1     H7A      HGA2     0.900000E-01   1.00800           0
     14122 MEMB     123      CHL1     H7B      HGA2     0.900000E-01   1.00800           0
     14123 MEMB     123      CHL1     C8       CRL1    -0.900000E-01   12.0110           0
     14124 MEMB     123      CHL1     H8       HGA1     0.900000E-01   1.00800           0
     14125 MEMB     123      CHL1     C14      CRL1    -0.900000E-01   12.0110           0
     14126 MEMB     123      CHL1     H14      HGA1     0.900000E-01   1.00800           0
     14127 MEMB     123      CHL1     C15      CRL2    -0.180000       12.0110           0
     14128 MEMB     123      CHL1     H15A     HGA2     0.900000E-01   1.00800           0
     14129 MEMB     123      CHL1     H15B     HGA2     0.900000E-01   1.00800           0
     14130 MEMB     123      CHL1     C16      CRL2    -0.180000       12.0110           0
     14131 MEMB     123      CHL1     H16A     HGA2     0.900000E-01   1.00800           0
     14132 MEMB     123      CHL1     H16B     HGA2     0.900000E-01   1.00800           0
     14133 MEMB     123      CHL1     C17      CRL1    -0.900000E-01   12.0110           0
     14134 MEMB     123      CHL1     H17      HGA1     0.900000E-01   1.00800           0
     14135 MEMB     123      CHL1     C13      CRL1      0.00000       12.0110           0
     14136 MEMB     123      CHL1     C18      CTL3    -0.270000       12.0110           0
     14137 MEMB     123      CHL1     H18A     HAL3     0.900000E-01   1.00800           0
     14138 MEMB     123      CHL1     H18B     HAL3     0.900000E-01   1.00800           0
     14139 MEMB     123      CHL1     H18C     HAL3     0.900000E-01   1.00800           0
     14140 MEMB     123      CHL1     C12      CRL2    -0.180000       12.0110           0
     14141 MEMB     123      CHL1     H12A     HGA2     0.900000E-01   1.00800           0
     14142 MEMB     123      CHL1     H12B     HGA2     0.900000E-01   1.00800           0
     14143 MEMB     123      CHL1     C11      CRL2    -0.180000       12.0110           0
     14144 MEMB     123      CHL1     H11A     HGA2     0.900000E-01   1.00800           0
     14145 MEMB     123      CHL1     H11B     HGA2     0.900000E-01   1.00800           0
     14146 MEMB     123      CHL1     C9       CRL1    -0.900000E-01   12.0110           0
     14147 MEMB     123      CHL1     H9       HGA1     0.900000E-01   1.00800           0
     14148 MEMB     123      CHL1     C10      CRL1      0.00000       12.0110           0
     14149 MEMB     123      CHL1     C19      CTL3    -0.270000       12.0110           0
     14150 MEMB     123      CHL1     H19A     HAL3     0.900000E-01   1.00800           0
     14151 MEMB     123      CHL1     H19B     HAL3     0.900000E-01   1.00800           0
     14152 MEMB     123      CHL1     H19C     HAL3     0.900000E-01   1.00800           0
     14153 MEMB     123      CHL1     C1       CRL2    -0.180000       12.0110           0
     14154 MEMB     123      CHL1     H1A      HGA2     0.900000E-01   1.00800           0
     14155 MEMB     123      CHL1     H1B      HGA2     0.900000E-01   1.00800           0
     14156 MEMB     123      CHL1     C2       CRL2    -0.180000       12.0110           0
     14157 MEMB     123      CHL1     H2A      HGA2     0.900000E-01   1.00800           0
     14158 MEMB     123      CHL1     H2B      HGA2     0.900000E-01   1.00800           0
     14159 MEMB     123      CHL1     C20      CTL1    -0.900000E-01   12.0110           0
     14160 MEMB     123      CHL1     H20      HAL1     0.900000E-01   1.00800           0
     14161 MEMB     123      CHL1     C21      CTL3    -0.270000       12.0110           0
     14162 MEMB     123      CHL1     H21A     HAL3     0.900000E-01   1.00800           0
     14163 MEMB     123      CHL1     H21B     HAL3     0.900000E-01   1.00800           0
     14164 MEMB     123      CHL1     H21C     HAL3     0.900000E-01   1.00800           0
     14165 MEMB     123      CHL1     C22      CTL2    -0.180000       12.0110           0
     14166 MEMB     123      CHL1     H22A     HAL2     0.900000E-01   1.00800           0
     14167 MEMB     123      CHL1     H22B     HAL2     0.900000E-01   1.00800           0
     14168 MEMB     123      CHL1     C23      CTL2    -0.180000       12.0110           0
     14169 MEMB     123      CHL1     H23A     HAL2     0.900000E-01   1.00800           0
     14170 MEMB     123      CHL1     H23B     HAL2     0.900000E-01   1.00800           0
     14171 MEMB     123      CHL1     C24      CTL2    -0.180000       12.0110           0
     14172 MEMB     123      CHL1     H24A     HAL2     0.900000E-01   1.00800           0
     14173 MEMB     123      CHL1     H24B     HAL2     0.900000E-01   1.00800           0
     14174 MEMB     123      CHL1     C25      CTL1    -0.900000E-01   12.0110           0
     14175 MEMB     123      CHL1     H25      HAL1     0.900000E-01   1.00800           0
     14176 MEMB     123      CHL1     C26      CTL3    -0.270000       12.0110           0
     14177 MEMB     123      CHL1     H26A     HAL3     0.900000E-01   1.00800           0
     14178 MEMB     123      CHL1     H26B     HAL3     0.900000E-01   1.00800           0
     14179 MEMB     123      CHL1     H26C     HAL3     0.900000E-01   1.00800           0
     14180 MEMB     123      CHL1     C27      CTL3    -0.270000       12.0110           0
     14181 MEMB     123      CHL1     H27A     HAL3     0.900000E-01   1.00800           0
     14182 MEMB     123      CHL1     H27B     HAL3     0.900000E-01   1.00800           0
     14183 MEMB     123      CHL1     H27C     HAL3     0.900000E-01   1.00800           0
     14184 MEMB     124      SAPE     N        NH3L    -0.300000       14.0070           0
     14185 MEMB     124      SAPE     HN1      HCL      0.330000       1.00800           0
     14186 MEMB     124      SAPE     HN2      HCL      0.330000       1.00800           0
     14187 MEMB     124      SAPE     HN3      HCL      0.330000       1.00800           0
     14188 MEMB     124      SAPE     C12      CTL2     0.130000       12.0110           0
     14189 MEMB     124      SAPE     H12A     HAL2     0.900000E-01   1.00800           0
     14190 MEMB     124      SAPE     H12B     HAL2     0.900000E-01   1.00800           0
     14191 MEMB     124      SAPE     C11      CTL2    -0.800000E-01   12.0110           0
     14192 MEMB     124      SAPE     H11A     HAL2     0.900000E-01   1.00800           0
     14193 MEMB     124      SAPE     H11B     HAL2     0.900000E-01   1.00800           0
     14194 MEMB     124      SAPE     P        PL        1.50000       30.9740           0
     14195 MEMB     124      SAPE     O13      O2L     -0.780000       15.9994           0
     14196 MEMB     124      SAPE     O14      O2L     -0.780000       15.9994           0
     14197 MEMB     124      SAPE     O12      OSLP    -0.570000       15.9994           0
     14198 MEMB     124      SAPE     O11      OSLP    -0.570000       15.9994           0
     14199 MEMB     124      SAPE     C1       CTL2    -0.800000E-01   12.0110           0
     14200 MEMB     124      SAPE     HA       HAL2     0.900000E-01   1.00800           0
     14201 MEMB     124      SAPE     HB       HAL2     0.900000E-01   1.00800           0
     14202 MEMB     124      SAPE     C2       CTL1     0.170000       12.0110           0
     14203 MEMB     124      SAPE     HS       HAL1     0.900000E-01   1.00800           0
     14204 MEMB     124      SAPE     O21      OSL     -0.490000       15.9994           0
     14205 MEMB     124      SAPE     C21      CL       0.900000       12.0110           0
     14206 MEMB     124      SAPE     O22      OBL     -0.630000       15.9994           0
     14207 MEMB     124      SAPE     C22      CTL2    -0.220000       12.0110           0
     14208 MEMB     124      SAPE     H2R      HAL2     0.900000E-01   1.00800           0
     14209 MEMB     124      SAPE     H2S      HAL2     0.900000E-01   1.00800           0
     14210 MEMB     124      SAPE     C3       CTL2     0.800000E-01   12.0110           0
     14211 MEMB     124      SAPE     HX       HAL2     0.900000E-01   1.00800           0
     14212 MEMB     124      SAPE     HY       HAL2     0.900000E-01   1.00800           0
     14213 MEMB     124      SAPE     O31      OSL     -0.490000       15.9994           0
     14214 MEMB     124      SAPE     C31      CL       0.900000       12.0110           0
     14215 MEMB     124      SAPE     O32      OBL     -0.630000       15.9994           0
     14216 MEMB     124      SAPE     C32      CTL2    -0.220000       12.0110           0
     14217 MEMB     124      SAPE     H2X      HAL2     0.900000E-01   1.00800           0
     14218 MEMB     124      SAPE     H2Y      HAL2     0.900000E-01   1.00800           0
     14219 MEMB     124      SAPE     C23      CTL2    -0.180000       12.0110           0
     14220 MEMB     124      SAPE     H3R      HAL2     0.900000E-01   1.00800           0
     14221 MEMB     124      SAPE     H3S      HAL2     0.900000E-01   1.00800           0
     14222 MEMB     124      SAPE     C24      CTL2    -0.180000       12.0110           0
     14223 MEMB     124      SAPE     H4R      HAL2     0.900000E-01   1.00800           0
     14224 MEMB     124      SAPE     H4S      HAL2     0.900000E-01   1.00800           0
     14225 MEMB     124      SAPE     C25      CEL1    -0.150000       12.0110           0
     14226 MEMB     124      SAPE     H5R      HEL1     0.150000       1.00800           0
     14227 MEMB     124      SAPE     C26      CEL1    -0.150000       12.0110           0
     14228 MEMB     124      SAPE     H6R      HEL1     0.150000       1.00800           0
     14229 MEMB     124      SAPE     C27      CTL2    -0.180000       12.0110           0
     14230 MEMB     124      SAPE     H7R      HAL2     0.900000E-01   1.00800           0
     14231 MEMB     124      SAPE     H7S      HAL2     0.900000E-01   1.00800           0
     14232 MEMB     124      SAPE     C28      CEL1    -0.150000       12.0110           0
     14233 MEMB     124      SAPE     H8R      HEL1     0.150000       1.00800           0
     14234 MEMB     124      SAPE     C29      CEL1    -0.150000       12.0110           0
     14235 MEMB     124      SAPE     H9R      HEL1     0.150000       1.00800           0
     14236 MEMB     124      SAPE     C210     CTL2    -0.180000       12.0110           0
     14237 MEMB     124      SAPE     H10R     HAL2     0.900000E-01   1.00800           0
     14238 MEMB     124      SAPE     H10S     HAL2     0.900000E-01   1.00800           0
     14239 MEMB     124      SAPE     C211     CEL1    -0.150000       12.0110           0
     14240 MEMB     124      SAPE     H11R     HEL1     0.150000       1.00800           0
     14241 MEMB     124      SAPE     C212     CEL1    -0.150000       12.0110           0
     14242 MEMB     124      SAPE     H12R     HEL1     0.150000       1.00800           0
     14243 MEMB     124      SAPE     C213     CTL2    -0.180000       12.0110           0
     14244 MEMB     124      SAPE     H13R     HAL2     0.900000E-01   1.00800           0
     14245 MEMB     124      SAPE     H13S     HAL2     0.900000E-01   1.00800           0
     14246 MEMB     124      SAPE     C214     CEL1    -0.150000       12.0110           0
     14247 MEMB     124      SAPE     H14R     HEL1     0.150000       1.00800           0
     14248 MEMB     124      SAPE     C215     CEL1    -0.150000       12.0110           0
     14249 MEMB     124      SAPE     H15R     HEL1     0.150000       1.00800           0
     14250 MEMB     124      SAPE     C216     CTL2    -0.180000       12.0110           0
     14251 MEMB     124      SAPE     H16R     HAL2     0.900000E-01   1.00800           0
     14252 MEMB     124      SAPE     H16S     HAL2     0.900000E-01   1.00800           0
     14253 MEMB     124      SAPE     C217     CTL2    -0.180000       12.0110           0
     14254 MEMB     124      SAPE     H17R     HAL2     0.900000E-01   1.00800           0
     14255 MEMB     124      SAPE     H17S     HAL2     0.900000E-01   1.00800           0
     14256 MEMB     124      SAPE     C218     CTL2    -0.180000       12.0110           0
     14257 MEMB     124      SAPE     H18R     HAL2     0.900000E-01   1.00800           0
     14258 MEMB     124      SAPE     H18S     HAL2     0.900000E-01   1.00800           0
     14259 MEMB     124      SAPE     C219     CTL2    -0.180000       12.0110           0
     14260 MEMB     124      SAPE     H19R     HAL2     0.900000E-01   1.00800           0
     14261 MEMB     124      SAPE     H19S     HAL2     0.900000E-01   1.00800           0
     14262 MEMB     124      SAPE     C220     CTL3    -0.270000       12.0110           0
     14263 MEMB     124      SAPE     H20R     HAL3     0.900000E-01   1.00800           0
     14264 MEMB     124      SAPE     H20S     HAL3     0.900000E-01   1.00800           0
     14265 MEMB     124      SAPE     H20T     HAL3     0.900000E-01   1.00800           0
     14266 MEMB     124      SAPE     C33      CTL2    -0.180000       12.0110           0
     14267 MEMB     124      SAPE     H3X      HAL2     0.900000E-01   1.00800           0
     14268 MEMB     124      SAPE     H3Y      HAL2     0.900000E-01   1.00800           0
     14269 MEMB     124      SAPE     C34      CTL2    -0.180000       12.0110           0
     14270 MEMB     124      SAPE     H4X      HAL2     0.900000E-01   1.00800           0
     14271 MEMB     124      SAPE     H4Y      HAL2     0.900000E-01   1.00800           0
     14272 MEMB     124      SAPE     C35      CTL2    -0.180000       12.0110           0
     14273 MEMB     124      SAPE     H5X      HAL2     0.900000E-01   1.00800           0
     14274 MEMB     124      SAPE     H5Y      HAL2     0.900000E-01   1.00800           0
     14275 MEMB     124      SAPE     C36      CTL2    -0.180000       12.0110           0
     14276 MEMB     124      SAPE     H6X      HAL2     0.900000E-01   1.00800           0
     14277 MEMB     124      SAPE     H6Y      HAL2     0.900000E-01   1.00800           0
     14278 MEMB     124      SAPE     C37      CTL2    -0.180000       12.0110           0
     14279 MEMB     124      SAPE     H7X      HAL2     0.900000E-01   1.00800           0
     14280 MEMB     124      SAPE     H7Y      HAL2     0.900000E-01   1.00800           0
     14281 MEMB     124      SAPE     C38      CTL2    -0.180000       12.0110           0
     14282 MEMB     124      SAPE     H8X      HAL2     0.900000E-01   1.00800           0
     14283 MEMB     124      SAPE     H8Y      HAL2     0.900000E-01   1.00800           0
     14284 MEMB     124      SAPE     C39      CTL2    -0.180000       12.0110           0
     14285 MEMB     124      SAPE     H9X      HAL2     0.900000E-01   1.00800           0
     14286 MEMB     124      SAPE     H9Y      HAL2     0.900000E-01   1.00800           0
     14287 MEMB     124      SAPE     C310     CTL2    -0.180000       12.0110           0
     14288 MEMB     124      SAPE     H10X     HAL2     0.900000E-01   1.00800           0
     14289 MEMB     124      SAPE     H10Y     HAL2     0.900000E-01   1.00800           0
     14290 MEMB     124      SAPE     C311     CTL2    -0.180000       12.0110           0
     14291 MEMB     124      SAPE     H11X     HAL2     0.900000E-01   1.00800           0
     14292 MEMB     124      SAPE     H11Y     HAL2     0.900000E-01   1.00800           0
     14293 MEMB     124      SAPE     C312     CTL2    -0.180000       12.0110           0
     14294 MEMB     124      SAPE     H12X     HAL2     0.900000E-01   1.00800           0
     14295 MEMB     124      SAPE     H12Y     HAL2     0.900000E-01   1.00800           0
     14296 MEMB     124      SAPE     C313     CTL2    -0.180000       12.0110           0
     14297 MEMB     124      SAPE     H13X     HAL2     0.900000E-01   1.00800           0
     14298 MEMB     124      SAPE     H13Y     HAL2     0.900000E-01   1.00800           0
     14299 MEMB     124      SAPE     C314     CTL2    -0.180000       12.0110           0
     14300 MEMB     124      SAPE     H14X     HAL2     0.900000E-01   1.00800           0
     14301 MEMB     124      SAPE     H14Y     HAL2     0.900000E-01   1.00800           0
     14302 MEMB     124      SAPE     C315     CTL2    -0.180000       12.0110           0
     14303 MEMB     124      SAPE     H15X     HAL2     0.900000E-01   1.00800           0
     14304 MEMB     124      SAPE     H15Y     HAL2     0.900000E-01   1.00800           0
     14305 MEMB     124      SAPE     C316     CTL2    -0.180000       12.0110           0
     14306 MEMB     124      SAPE     H16X     HAL2     0.900000E-01   1.00800           0
     14307 MEMB     124      SAPE     H16Y     HAL2     0.900000E-01   1.00800           0
     14308 MEMB     124      SAPE     C317     CTL2    -0.180000       12.0110           0
     14309 MEMB     124      SAPE     H17X     HAL2     0.900000E-01   1.00800           0
     14310 MEMB     124      SAPE     H17Y     HAL2     0.900000E-01   1.00800           0
     14311 MEMB     124      SAPE     C318     CTL3    -0.270000       12.0110           0
     14312 MEMB     124      SAPE     H18X     HAL3     0.900000E-01   1.00800           0
     14313 MEMB     124      SAPE     H18Y     HAL3     0.900000E-01   1.00800           0
     14314 MEMB     124      SAPE     H18Z     HAL3     0.900000E-01   1.00800           0
     14315 MEMB     125      CHL1     C3       CRL1     0.140000       12.0110           0
     14316 MEMB     125      CHL1     H3       HGA1     0.900000E-01   1.00800           0
     14317 MEMB     125      CHL1     O3       OHL     -0.660000       15.9994           0
     14318 MEMB     125      CHL1     H3'      HOL      0.430000       1.00800           0
     14319 MEMB     125      CHL1     C4       CRL2    -0.180000       12.0110           0
     14320 MEMB     125      CHL1     H4A      HGA2     0.900000E-01   1.00800           0
     14321 MEMB     125      CHL1     H4B      HGA2     0.900000E-01   1.00800           0
     14322 MEMB     125      CHL1     C5       CEL1      0.00000       12.0110           0
     14323 MEMB     125      CHL1     C6       CEL1    -0.150000       12.0110           0
     14324 MEMB     125      CHL1     H6       HEL1     0.150000       1.00800           0
     14325 MEMB     125      CHL1     C7       CRL2    -0.180000       12.0110           0
     14326 MEMB     125      CHL1     H7A      HGA2     0.900000E-01   1.00800           0
     14327 MEMB     125      CHL1     H7B      HGA2     0.900000E-01   1.00800           0
     14328 MEMB     125      CHL1     C8       CRL1    -0.900000E-01   12.0110           0
     14329 MEMB     125      CHL1     H8       HGA1     0.900000E-01   1.00800           0
     14330 MEMB     125      CHL1     C14      CRL1    -0.900000E-01   12.0110           0
     14331 MEMB     125      CHL1     H14      HGA1     0.900000E-01   1.00800           0
     14332 MEMB     125      CHL1     C15      CRL2    -0.180000       12.0110           0
     14333 MEMB     125      CHL1     H15A     HGA2     0.900000E-01   1.00800           0
     14334 MEMB     125      CHL1     H15B     HGA2     0.900000E-01   1.00800           0
     14335 MEMB     125      CHL1     C16      CRL2    -0.180000       12.0110           0
     14336 MEMB     125      CHL1     H16A     HGA2     0.900000E-01   1.00800           0
     14337 MEMB     125      CHL1     H16B     HGA2     0.900000E-01   1.00800           0
     14338 MEMB     125      CHL1     C17      CRL1    -0.900000E-01   12.0110           0
     14339 MEMB     125      CHL1     H17      HGA1     0.900000E-01   1.00800           0
     14340 MEMB     125      CHL1     C13      CRL1      0.00000       12.0110           0
     14341 MEMB     125      CHL1     C18      CTL3    -0.270000       12.0110           0
     14342 MEMB     125      CHL1     H18A     HAL3     0.900000E-01   1.00800           0
     14343 MEMB     125      CHL1     H18B     HAL3     0.900000E-01   1.00800           0
     14344 MEMB     125      CHL1     H18C     HAL3     0.900000E-01   1.00800           0
     14345 MEMB     125      CHL1     C12      CRL2    -0.180000       12.0110           0
     14346 MEMB     125      CHL1     H12A     HGA2     0.900000E-01   1.00800           0
     14347 MEMB     125      CHL1     H12B     HGA2     0.900000E-01   1.00800           0
     14348 MEMB     125      CHL1     C11      CRL2    -0.180000       12.0110           0
     14349 MEMB     125      CHL1     H11A     HGA2     0.900000E-01   1.00800           0
     14350 MEMB     125      CHL1     H11B     HGA2     0.900000E-01   1.00800           0
     14351 MEMB     125      CHL1     C9       CRL1    -0.900000E-01   12.0110           0
     14352 MEMB     125      CHL1     H9       HGA1     0.900000E-01   1.00800           0
     14353 MEMB     125      CHL1     C10      CRL1      0.00000       12.0110           0
     14354 MEMB     125      CHL1     C19      CTL3    -0.270000       12.0110           0
     14355 MEMB     125      CHL1     H19A     HAL3     0.900000E-01   1.00800           0
     14356 MEMB     125      CHL1     H19B     HAL3     0.900000E-01   1.00800           0
     14357 MEMB     125      CHL1     H19C     HAL3     0.900000E-01   1.00800           0
     14358 MEMB     125      CHL1     C1       CRL2    -0.180000       12.0110           0
     14359 MEMB     125      CHL1     H1A      HGA2     0.900000E-01   1.00800           0
     14360 MEMB     125      CHL1     H1B      HGA2     0.900000E-01   1.00800           0
     14361 MEMB     125      CHL1     C2       CRL2    -0.180000       12.0110           0
     14362 MEMB     125      CHL1     H2A      HGA2     0.900000E-01   1.00800           0
     14363 MEMB     125      CHL1     H2B      HGA2     0.900000E-01   1.00800           0
     14364 MEMB     125      CHL1     C20      CTL1    -0.900000E-01   12.0110           0
     14365 MEMB     125      CHL1     H20      HAL1     0.900000E-01   1.00800           0
     14366 MEMB     125      CHL1     C21      CTL3    -0.270000       12.0110           0
     14367 MEMB     125      CHL1     H21A     HAL3     0.900000E-01   1.00800           0
     14368 MEMB     125      CHL1     H21B     HAL3     0.900000E-01   1.00800           0
     14369 MEMB     125      CHL1     H21C     HAL3     0.900000E-01   1.00800           0
     14370 MEMB     125      CHL1     C22      CTL2    -0.180000       12.0110           0
     14371 MEMB     125      CHL1     H22A     HAL2     0.900000E-01   1.00800           0
     14372 MEMB     125      CHL1     H22B     HAL2     0.900000E-01   1.00800           0
     14373 MEMB     125      CHL1     C23      CTL2    -0.180000       12.0110           0
     14374 MEMB     125      CHL1     H23A     HAL2     0.900000E-01   1.00800           0
     14375 MEMB     125      CHL1     H23B     HAL2     0.900000E-01   1.00800           0
     14376 MEMB     125      CHL1     C24      CTL2    -0.180000       12.0110           0
     14377 MEMB     125      CHL1     H24A     HAL2     0.900000E-01   1.00800           0
     14378 MEMB     125      CHL1     H24B     HAL2     0.900000E-01   1.00800           0
     14379 MEMB     125      CHL1     C25      CTL1    -0.900000E-01   12.0110           0
     14380 MEMB     125      CHL1     H25      HAL1     0.900000E-01   1.00800           0
     14381 MEMB     125      CHL1     C26      CTL3    -0.270000       12.0110           0
     14382 MEMB     125      CHL1     H26A     HAL3     0.900000E-01   1.00800           0
     14383 MEMB     125      CHL1     H26B     HAL3     0.900000E-01   1.00800           0
     14384 MEMB     125      CHL1     H26C     HAL3     0.900000E-01   1.00800           0
     14385 MEMB     125      CHL1     C27      CTL3    -0.270000       12.0110           0
     14386 MEMB     125      CHL1     H27A     HAL3     0.900000E-01   1.00800           0
     14387 MEMB     125      CHL1     H27B     HAL3     0.900000E-01   1.00800           0
     14388 MEMB     125      CHL1     H27C     HAL3     0.900000E-01   1.00800           0
     14389 MEMB     126      CHL1     C3       CRL1     0.140000       12.0110           0
     14390 MEMB     126      CHL1     H3       HGA1     0.900000E-01   1.00800           0
     14391 MEMB     126      CHL1     O3       OHL     -0.660000       15.9994           0
     14392 MEMB     126      CHL1     H3'      HOL      0.430000       1.00800           0
     14393 MEMB     126      CHL1     C4       CRL2    -0.180000       12.0110           0
     14394 MEMB     126      CHL1     H4A      HGA2     0.900000E-01   1.00800           0
     14395 MEMB     126      CHL1     H4B      HGA2     0.900000E-01   1.00800           0
     14396 MEMB     126      CHL1     C5       CEL1      0.00000       12.0110           0
     14397 MEMB     126      CHL1     C6       CEL1    -0.150000       12.0110           0
     14398 MEMB     126      CHL1     H6       HEL1     0.150000       1.00800           0
     14399 MEMB     126      CHL1     C7       CRL2    -0.180000       12.0110           0
     14400 MEMB     126      CHL1     H7A      HGA2     0.900000E-01   1.00800           0
     14401 MEMB     126      CHL1     H7B      HGA2     0.900000E-01   1.00800           0
     14402 MEMB     126      CHL1     C8       CRL1    -0.900000E-01   12.0110           0
     14403 MEMB     126      CHL1     H8       HGA1     0.900000E-01   1.00800           0
     14404 MEMB     126      CHL1     C14      CRL1    -0.900000E-01   12.0110           0
     14405 MEMB     126      CHL1     H14      HGA1     0.900000E-01   1.00800           0
     14406 MEMB     126      CHL1     C15      CRL2    -0.180000       12.0110           0
     14407 MEMB     126      CHL1     H15A     HGA2     0.900000E-01   1.00800           0
     14408 MEMB     126      CHL1     H15B     HGA2     0.900000E-01   1.00800           0
     14409 MEMB     126      CHL1     C16      CRL2    -0.180000       12.0110           0
     14410 MEMB     126      CHL1     H16A     HGA2     0.900000E-01   1.00800           0
     14411 MEMB     126      CHL1     H16B     HGA2     0.900000E-01   1.00800           0
     14412 MEMB     126      CHL1     C17      CRL1    -0.900000E-01   12.0110           0
     14413 MEMB     126      CHL1     H17      HGA1     0.900000E-01   1.00800           0
     14414 MEMB     126      CHL1     C13      CRL1      0.00000       12.0110           0
     14415 MEMB     126      CHL1     C18      CTL3    -0.270000       12.0110           0
     14416 MEMB     126      CHL1     H18A     HAL3     0.900000E-01   1.00800           0
     14417 MEMB     126      CHL1     H18B     HAL3     0.900000E-01   1.00800           0
     14418 MEMB     126      CHL1     H18C     HAL3     0.900000E-01   1.00800           0
     14419 MEMB     126      CHL1     C12      CRL2    -0.180000       12.0110           0
     14420 MEMB     126      CHL1     H12A     HGA2     0.900000E-01   1.00800           0
     14421 MEMB     126      CHL1     H12B     HGA2     0.900000E-01   1.00800           0
     14422 MEMB     126      CHL1     C11      CRL2    -0.180000       12.0110           0
     14423 MEMB     126      CHL1     H11A     HGA2     0.900000E-01   1.00800           0
     14424 MEMB     126      CHL1     H11B     HGA2     0.900000E-01   1.00800           0
     14425 MEMB     126      CHL1     C9       CRL1    -0.900000E-01   12.0110           0
     14426 MEMB     126      CHL1     H9       HGA1     0.900000E-01   1.00800           0
     14427 MEMB     126      CHL1     C10      CRL1      0.00000       12.0110           0
     14428 MEMB     126      CHL1     C19      CTL3    -0.270000       12.0110           0
     14429 MEMB     126      CHL1     H19A     HAL3     0.900000E-01   1.00800           0
     14430 MEMB     126      CHL1     H19B     HAL3     0.900000E-01   1.00800           0
     14431 MEMB     126      CHL1     H19C     HAL3     0.900000E-01   1.00800           0
     14432 MEMB     126      CHL1     C1       CRL2    -0.180000       12.0110           0
     14433 MEMB     126      CHL1     H1A      HGA2     0.900000E-01   1.00800           0
     14434 MEMB     126      CHL1     H1B      HGA2     0.900000E-01   1.00800           0
     14435 MEMB     126      CHL1     C2       CRL2    -0.180000       12.0110           0
     14436 MEMB     126      CHL1     H2A      HGA2     0.900000E-01   1.00800           0
     14437 MEMB     126      CHL1     H2B      HGA2     0.900000E-01   1.00800           0
     14438 MEMB     126      CHL1     C20      CTL1    -0.900000E-01   12.0110           0
     14439 MEMB     126      CHL1     H20      HAL1     0.900000E-01   1.00800           0
     14440 MEMB     126      CHL1     C21      CTL3    -0.270000       12.0110           0
     14441 MEMB     126      CHL1     H21A     HAL3     0.900000E-01   1.00800           0
     14442 MEMB     126      CHL1     H21B     HAL3     0.900000E-01   1.00800           0
     14443 MEMB     126      CHL1     H21C     HAL3     0.900000E-01   1.00800           0
     14444 MEMB     126      CHL1     C22      CTL2    -0.180000       12.0110           0
     14445 MEMB     126      CHL1     H22A     HAL2     0.900000E-01   1.00800           0
     14446 MEMB     126      CHL1     H22B     HAL2     0.900000E-01   1.00800           0
     14447 MEMB     126      CHL1     C23      CTL2    -0.180000       12.0110           0
     14448 MEMB     126      CHL1     H23A     HAL2     0.900000E-01   1.00800           0
     14449 MEMB     126      CHL1     H23B     HAL2     0.900000E-01   1.00800           0
     14450 MEMB     126      CHL1     C24      CTL2    -0.180000       12.0110           0
     14451 MEMB     126      CHL1     H24A     HAL2     0.900000E-01   1.00800           0
     14452 MEMB     126      CHL1     H24B     HAL2     0.900000E-01   1.00800           0
     14453 MEMB     126      CHL1     C25      CTL1    -0.900000E-01   12.0110           0
     14454 MEMB     126      CHL1     H25      HAL1     0.900000E-01   1.00800           0
     14455 MEMB     126      CHL1     C26      CTL3    -0.270000       12.0110           0
     14456 MEMB     126      CHL1     H26A     HAL3     0.900000E-01   1.00800           0
     14457 MEMB     126      CHL1     H26B     HAL3     0.900000E-01   1.00800           0
     14458 MEMB     126      CHL1     H26C     HAL3     0.900000E-01   1.00800           0
     14459 MEMB     126      CHL1     C27      CTL3    -0.270000       12.0110           0
     14460 MEMB     126      CHL1     H27A     HAL3     0.900000E-01   1.00800           0
     14461 MEMB     126      CHL1     H27B     HAL3     0.900000E-01   1.00800           0
     14462 MEMB     126      CHL1     H27C     HAL3     0.900000E-01   1.00800           0
     14463 MEMB     127      CHL1     C3       CRL1     0.140000       12.0110           0
     14464 MEMB     127      CHL1     H3       HGA1     0.900000E-01   1.00800           0
     14465 MEMB     127      CHL1     O3       OHL     -0.660000       15.9994           0
     14466 MEMB     127      CHL1     H3'      HOL      0.430000       1.00800           0
     14467 MEMB     127      CHL1     C4       CRL2    -0.180000       12.0110           0
     14468 MEMB     127      CHL1     H4A      HGA2     0.900000E-01   1.00800           0
     14469 MEMB     127      CHL1     H4B      HGA2     0.900000E-01   1.00800           0
     14470 MEMB     127      CHL1     C5       CEL1      0.00000       12.0110           0
     14471 MEMB     127      CHL1     C6       CEL1    -0.150000       12.0110           0
     14472 MEMB     127      CHL1     H6       HEL1     0.150000       1.00800           0
     14473 MEMB     127      CHL1     C7       CRL2    -0.180000       12.0110           0
     14474 MEMB     127      CHL1     H7A      HGA2     0.900000E-01   1.00800           0
     14475 MEMB     127      CHL1     H7B      HGA2     0.900000E-01   1.00800           0
     14476 MEMB     127      CHL1     C8       CRL1    -0.900000E-01   12.0110           0
     14477 MEMB     127      CHL1     H8       HGA1     0.900000E-01   1.00800           0
     14478 MEMB     127      CHL1     C14      CRL1    -0.900000E-01   12.0110           0
     14479 MEMB     127      CHL1     H14      HGA1     0.900000E-01   1.00800           0
     14480 MEMB     127      CHL1     C15      CRL2    -0.180000       12.0110           0
     14481 MEMB     127      CHL1     H15A     HGA2     0.900000E-01   1.00800           0
     14482 MEMB     127      CHL1     H15B     HGA2     0.900000E-01   1.00800           0
     14483 MEMB     127      CHL1     C16      CRL2    -0.180000       12.0110           0
     14484 MEMB     127      CHL1     H16A     HGA2     0.900000E-01   1.00800           0
     14485 MEMB     127      CHL1     H16B     HGA2     0.900000E-01   1.00800           0
     14486 MEMB     127      CHL1     C17      CRL1    -0.900000E-01   12.0110           0
     14487 MEMB     127      CHL1     H17      HGA1     0.900000E-01   1.00800           0
     14488 MEMB     127      CHL1     C13      CRL1      0.00000       12.0110           0
     14489 MEMB     127      CHL1     C18      CTL3    -0.270000       12.0110           0
     14490 MEMB     127      CHL1     H18A     HAL3     0.900000E-01   1.00800           0
     14491 MEMB     127      CHL1     H18B     HAL3     0.900000E-01   1.00800           0
     14492 MEMB     127      CHL1     H18C     HAL3     0.900000E-01   1.00800           0
     14493 MEMB     127      CHL1     C12      CRL2    -0.180000       12.0110           0
     14494 MEMB     127      CHL1     H12A     HGA2     0.900000E-01   1.00800           0
     14495 MEMB     127      CHL1     H12B     HGA2     0.900000E-01   1.00800           0
     14496 MEMB     127      CHL1     C11      CRL2    -0.180000       12.0110           0
     14497 MEMB     127      CHL1     H11A     HGA2     0.900000E-01   1.00800           0
     14498 MEMB     127      CHL1     H11B     HGA2     0.900000E-01   1.00800           0
     14499 MEMB     127      CHL1     C9       CRL1    -0.900000E-01   12.0110           0
     14500 MEMB     127      CHL1     H9       HGA1     0.900000E-01   1.00800           0
     14501 MEMB     127      CHL1     C10      CRL1      0.00000       12.0110           0
     14502 MEMB     127      CHL1     C19      CTL3    -0.270000       12.0110           0
     14503 MEMB     127      CHL1     H19A     HAL3     0.900000E-01   1.00800           0
     14504 MEMB     127      CHL1     H19B     HAL3     0.900000E-01   1.00800           0
     14505 MEMB     127      CHL1     H19C     HAL3     0.900000E-01   1.00800           0
     14506 MEMB     127      CHL1     C1       CRL2    -0.180000       12.0110           0
     14507 MEMB     127      CHL1     H1A      HGA2     0.900000E-01   1.00800           0
     14508 MEMB     127      CHL1     H1B      HGA2     0.900000E-01   1.00800           0
     14509 MEMB     127      CHL1     C2       CRL2    -0.180000       12.0110           0
     14510 MEMB     127      CHL1     H2A      HGA2     0.900000E-01   1.00800           0
     14511 MEMB     127      CHL1     H2B      HGA2     0.900000E-01   1.00800           0
     14512 MEMB     127      CHL1     C20      CTL1    -0.900000E-01   12.0110           0
     14513 MEMB     127      CHL1     H20      HAL1     0.900000E-01   1.00800           0
     14514 MEMB     127      CHL1     C21      CTL3    -0.270000       12.0110           0
     14515 MEMB     127      CHL1     H21A     HAL3     0.900000E-01   1.00800           0
     14516 MEMB     127      CHL1     H21B     HAL3     0.900000E-01   1.00800           0
     14517 MEMB     127      CHL1     H21C     HAL3     0.900000E-01   1.00800           0
     14518 MEMB     127      CHL1     C22      CTL2    -0.180000       12.0110           0
     14519 MEMB     127      CHL1     H22A     HAL2     0.900000E-01   1.00800           0
     14520 MEMB     127      CHL1     H22B     HAL2     0.900000E-01   1.00800           0
     14521 MEMB     127      CHL1     C23      CTL2    -0.180000       12.0110           0
     14522 MEMB     127      CHL1     H23A     HAL2     0.900000E-01   1.00800           0
     14523 MEMB     127      CHL1     H23B     HAL2     0.900000E-01   1.00800           0
     14524 MEMB     127      CHL1     C24      CTL2    -0.180000       12.0110           0
     14525 MEMB     127      CHL1     H24A     HAL2     0.900000E-01   1.00800           0
     14526 MEMB     127      CHL1     H24B     HAL2     0.900000E-01   1.00800           0
     14527 MEMB     127      CHL1     C25      CTL1    -0.900000E-01   12.0110           0
     14528 MEMB     127      CHL1     H25      HAL1     0.900000E-01   1.00800           0
     14529 MEMB     127      CHL1     C26      CTL3    -0.270000       12.0110           0
     14530 MEMB     127      CHL1     H26A     HAL3     0.900000E-01   1.00800           0
     14531 MEMB     127      CHL1     H26B     HAL3     0.900000E-01   1.00800           0
     14532 MEMB     127      CHL1     H26C     HAL3     0.900000E-01   1.00800           0
     14533 MEMB     127      CHL1     C27      CTL3    -0.270000       12.0110           0
     14534 MEMB     127      CHL1     H27A     HAL3     0.900000E-01   1.00800           0
     14535 MEMB     127      CHL1     H27B     HAL3     0.900000E-01   1.00800           0
     14536 MEMB     127      CHL1     H27C     HAL3     0.900000E-01   1.00800           0
     14537 MEMB     128      POPC     N        NTL     -0.600000       14.0070           0
     14538 MEMB     128      POPC     C12      CTL2    -0.100000       12.0110           0
     14539 MEMB     128      POPC     H12A     HL       0.250000       1.00800           0
     14540 MEMB     128      POPC     H12B     HL       0.250000       1.00800           0
     14541 MEMB     128      POPC     C13      CTL5    -0.350000       12.0110           0
     14542 MEMB     128      POPC     H13A     HL       0.250000       1.00800           0
     14543 MEMB     128      POPC     H13B     HL       0.250000       1.00800           0
     14544 MEMB     128      POPC     H13C     HL       0.250000       1.00800           0
     14545 MEMB     128      POPC     C14      CTL5    -0.350000       12.0110           0
     14546 MEMB     128      POPC     H14A     HL       0.250000       1.00800           0
     14547 MEMB     128      POPC     H14B     HL       0.250000       1.00800           0
     14548 MEMB     128      POPC     H14C     HL       0.250000       1.00800           0
     14549 MEMB     128      POPC     C15      CTL5    -0.350000       12.0110           0
     14550 MEMB     128      POPC     H15A     HL       0.250000       1.00800           0
     14551 MEMB     128      POPC     H15B     HL       0.250000       1.00800           0
     14552 MEMB     128      POPC     H15C     HL       0.250000       1.00800           0
     14553 MEMB     128      POPC     C11      CTL2    -0.800000E-01   12.0110           0
     14554 MEMB     128      POPC     H11A     HAL2     0.900000E-01   1.00800           0
     14555 MEMB     128      POPC     H11B     HAL2     0.900000E-01   1.00800           0
     14556 MEMB     128      POPC     P        PL        1.50000       30.9740           0
     14557 MEMB     128      POPC     O13      O2L     -0.780000       15.9994           0
     14558 MEMB     128      POPC     O14      O2L     -0.780000       15.9994           0
     14559 MEMB     128      POPC     O12      OSLP    -0.570000       15.9994           0
     14560 MEMB     128      POPC     O11      OSLP    -0.570000       15.9994           0
     14561 MEMB     128      POPC     C1       CTL2    -0.800000E-01   12.0110           0
     14562 MEMB     128      POPC     HA       HAL2     0.900000E-01   1.00800           0
     14563 MEMB     128      POPC     HB       HAL2     0.900000E-01   1.00800           0
     14564 MEMB     128      POPC     C2       CTL1     0.170000       12.0110           0
     14565 MEMB     128      POPC     HS       HAL1     0.900000E-01   1.00800           0
     14566 MEMB     128      POPC     O21      OSL     -0.490000       15.9994           0
     14567 MEMB     128      POPC     C21      CL       0.900000       12.0110           0
     14568 MEMB     128      POPC     O22      OBL     -0.630000       15.9994           0
     14569 MEMB     128      POPC     C22      CTL2    -0.220000       12.0110           0
     14570 MEMB     128      POPC     H2R      HAL2     0.900000E-01   1.00800           0
     14571 MEMB     128      POPC     H2S      HAL2     0.900000E-01   1.00800           0
     14572 MEMB     128      POPC     C3       CTL2     0.800000E-01   12.0110           0
     14573 MEMB     128      POPC     HX       HAL2     0.900000E-01   1.00800           0
     14574 MEMB     128      POPC     HY       HAL2     0.900000E-01   1.00800           0
     14575 MEMB     128      POPC     O31      OSL     -0.490000       15.9994           0
     14576 MEMB     128      POPC     C31      CL       0.900000       12.0110           0
     14577 MEMB     128      POPC     O32      OBL     -0.630000       15.9994           0
     14578 MEMB     128      POPC     C32      CTL2    -0.220000       12.0110           0
     14579 MEMB     128      POPC     H2X      HAL2     0.900000E-01   1.00800           0
     14580 MEMB     128      POPC     H2Y      HAL2     0.900000E-01   1.00800           0
     14581 MEMB     128      POPC     C23      CTL2    -0.180000       12.0110           0
     14582 MEMB     128      POPC     H3R      HAL2     0.900000E-01   1.00800           0
     14583 MEMB     128      POPC     H3S      HAL2     0.900000E-01   1.00800           0
     14584 MEMB     128      POPC     C24      CTL2    -0.180000       12.0110           0
     14585 MEMB     128      POPC     H4R      HAL2     0.900000E-01   1.00800           0
     14586 MEMB     128      POPC     H4S      HAL2     0.900000E-01   1.00800           0
     14587 MEMB     128      POPC     C25      CTL2    -0.180000       12.0110           0
     14588 MEMB     128      POPC     H5R      HAL2     0.900000E-01   1.00800           0
     14589 MEMB     128      POPC     H5S      HAL2     0.900000E-01   1.00800           0
     14590 MEMB     128      POPC     C26      CTL2    -0.180000       12.0110           0
     14591 MEMB     128      POPC     H6R      HAL2     0.900000E-01   1.00800           0
     14592 MEMB     128      POPC     H6S      HAL2     0.900000E-01   1.00800           0
     14593 MEMB     128      POPC     C27      CTL2    -0.180000       12.0110           0
     14594 MEMB     128      POPC     H7R      HAL2     0.900000E-01   1.00800           0
     14595 MEMB     128      POPC     H7S      HAL2     0.900000E-01   1.00800           0
     14596 MEMB     128      POPC     C28      CTL2    -0.180000       12.0110           0
     14597 MEMB     128      POPC     H8R      HAL2     0.900000E-01   1.00800           0
     14598 MEMB     128      POPC     H8S      HAL2     0.900000E-01   1.00800           0
     14599 MEMB     128      POPC     C29      CEL1    -0.150000       12.0110           0
     14600 MEMB     128      POPC     H91      HEL1     0.150000       1.00800           0
     14601 MEMB     128      POPC     C210     CEL1    -0.150000       12.0110           0
     14602 MEMB     128      POPC     H101     HEL1     0.150000       1.00800           0
     14603 MEMB     128      POPC     C211     CTL2    -0.180000       12.0110           0
     14604 MEMB     128      POPC     H11R     HAL2     0.900000E-01   1.00800           0
     14605 MEMB     128      POPC     H11S     HAL2     0.900000E-01   1.00800           0
     14606 MEMB     128      POPC     C212     CTL2    -0.180000       12.0110           0
     14607 MEMB     128      POPC     H12R     HAL2     0.900000E-01   1.00800           0
     14608 MEMB     128      POPC     H12S     HAL2     0.900000E-01   1.00800           0
     14609 MEMB     128      POPC     C213     CTL2    -0.180000       12.0110           0
     14610 MEMB     128      POPC     H13R     HAL2     0.900000E-01   1.00800           0
     14611 MEMB     128      POPC     H13S     HAL2     0.900000E-01   1.00800           0
     14612 MEMB     128      POPC     C214     CTL2    -0.180000       12.0110           0
     14613 MEMB     128      POPC     H14R     HAL2     0.900000E-01   1.00800           0
     14614 MEMB     128      POPC     H14S     HAL2     0.900000E-01   1.00800           0
     14615 MEMB     128      POPC     C215     CTL2    -0.180000       12.0110           0
     14616 MEMB     128      POPC     H15R     HAL2     0.900000E-01   1.00800           0
     14617 MEMB     128      POPC     H15S     HAL2     0.900000E-01   1.00800           0
     14618 MEMB     128      POPC     C216     CTL2    -0.180000       12.0110           0
     14619 MEMB     128      POPC     H16R     HAL2     0.900000E-01   1.00800           0
     14620 MEMB     128      POPC     H16S     HAL2     0.900000E-01   1.00800           0
     14621 MEMB     128      POPC     C217     CTL2    -0.180000       12.0110           0
     14622 MEMB     128      POPC     H17R     HAL2     0.900000E-01   1.00800           0
     14623 MEMB     128      POPC     H17S     HAL2     0.900000E-01   1.00800           0
     14624 MEMB     128      POPC     C218     CTL3    -0.270000       12.0110           0
     14625 MEMB     128      POPC     H18R     HAL3     0.900000E-01   1.00800           0
     14626 MEMB     128      POPC     H18S     HAL3     0.900000E-01   1.00800           0
     14627 MEMB     128      POPC     H18T     HAL3     0.900000E-01   1.00800           0
     14628 MEMB     128      POPC     C33      CTL2    -0.180000       12.0110           0
     14629 MEMB     128      POPC     H3X      HAL2     0.900000E-01   1.00800           0
     14630 MEMB     128      POPC     H3Y      HAL2     0.900000E-01   1.00800           0
     14631 MEMB     128      POPC     C34      CTL2    -0.180000       12.0110           0
     14632 MEMB     128      POPC     H4X      HAL2     0.900000E-01   1.00800           0
     14633 MEMB     128      POPC     H4Y      HAL2     0.900000E-01   1.00800           0
     14634 MEMB     128      POPC     C35      CTL2    -0.180000       12.0110           0
     14635 MEMB     128      POPC     H5X      HAL2     0.900000E-01   1.00800           0
     14636 MEMB     128      POPC     H5Y      HAL2     0.900000E-01   1.00800           0
     14637 MEMB     128      POPC     C36      CTL2    -0.180000       12.0110           0
     14638 MEMB     128      POPC     H6X      HAL2     0.900000E-01   1.00800           0
     14639 MEMB     128      POPC     H6Y      HAL2     0.900000E-01   1.00800           0
     14640 MEMB     128      POPC     C37      CTL2    -0.180000       12.0110           0
     14641 MEMB     128      POPC     H7X      HAL2     0.900000E-01   1.00800           0
     14642 MEMB     128      POPC     H7Y      HAL2     0.900000E-01   1.00800           0
     14643 MEMB     128      POPC     C38      CTL2    -0.180000       12.0110           0
     14644 MEMB     128      POPC     H8X      HAL2     0.900000E-01   1.00800           0
     14645 MEMB     128      POPC     H8Y      HAL2     0.900000E-01   1.00800           0
     14646 MEMB     128      POPC     C39      CTL2    -0.180000       12.0110           0
     14647 MEMB     128      POPC     H9X      HAL2     0.900000E-01   1.00800           0
     14648 MEMB     128      POPC     H9Y      HAL2     0.900000E-01   1.00800           0
     14649 MEMB     128      POPC     C310     CTL2    -0.180000       12.0110           0
     14650 MEMB     128      POPC     H10X     HAL2     0.900000E-01   1.00800           0
     14651 MEMB     128      POPC     H10Y     HAL2     0.900000E-01   1.00800           0
     14652 MEMB     128      POPC     C311     CTL2    -0.180000       12.0110           0
     14653 MEMB     128      POPC     H11X     HAL2     0.900000E-01   1.00800           0
     14654 MEMB     128      POPC     H11Y     HAL2     0.900000E-01   1.00800           0
     14655 MEMB     128      POPC     C312     CTL2    -0.180000       12.0110           0
     14656 MEMB     128      POPC     H12X     HAL2     0.900000E-01   1.00800           0
     14657 MEMB     128      POPC     H12Y     HAL2     0.900000E-01   1.00800           0
     14658 MEMB     128      POPC     C313     CTL2    -0.180000       12.0110           0
     14659 MEMB     128      POPC     H13X     HAL2     0.900000E-01   1.00800           0
     14660 MEMB     128      POPC     H13Y     HAL2     0.900000E-01   1.00800           0
     14661 MEMB     128      POPC     C314     CTL2    -0.180000       12.0110           0
     14662 MEMB     128      POPC     H14X     HAL2     0.900000E-01   1.00800           0
     14663 MEMB     128      POPC     H14Y     HAL2     0.900000E-01   1.00800           0
     14664 MEMB     128      POPC     C315     CTL2    -0.180000       12.0110           0
     14665 MEMB     128      POPC     H15X     HAL2     0.900000E-01   1.00800           0
     14666 MEMB     128      POPC     H15Y     HAL2     0.900000E-01   1.00800           0
     14667 MEMB     128      POPC     C316     CTL3    -0.270000       12.0110           0
     14668 MEMB     128      POPC     H16X     HAL3     0.900000E-01   1.00800           0
     14669 MEMB     128      POPC     H16Y     HAL3     0.900000E-01   1.00800           0
     14670 MEMB     128      POPC     H16Z     HAL3     0.900000E-01   1.00800           0
     14671 MEMB     129      SAPS     N        NH3L    -0.300000       14.0070           0
     14672 MEMB     129      SAPS     HN1      HCL      0.330000       1.00800           0
     14673 MEMB     129      SAPS     HN2      HCL      0.330000       1.00800           0
     14674 MEMB     129      SAPS     HN3      HCL      0.330000       1.00800           0
     14675 MEMB     129      SAPS     C12      CTL1     0.210000       12.0110           0
     14676 MEMB     129      SAPS     H12A     HBL      0.100000       1.00800           0
     14677 MEMB     129      SAPS     C13      CCL      0.340000       12.0110           0
     14678 MEMB     129      SAPS     O13A     OCL     -0.670000       15.9994           0
     14679 MEMB     129      SAPS     O13B     OCL     -0.670000       15.9994           0
     14680 MEMB     129      SAPS     C11      CTL2    -0.800000E-01   12.0110           0
     14681 MEMB     129      SAPS     H11A     HAL2     0.900000E-01   1.00800           0
     14682 MEMB     129      SAPS     H11B     HAL2     0.900000E-01   1.00800           0
     14683 MEMB     129      SAPS     P        PL        1.50000       30.9740           0
     14684 MEMB     129      SAPS     O13      O2L     -0.780000       15.9994           0
     14685 MEMB     129      SAPS     O14      O2L     -0.780000       15.9994           0
     14686 MEMB     129      SAPS     O12      OSLP    -0.570000       15.9994           0
     14687 MEMB     129      SAPS     O11      OSLP    -0.570000       15.9994           0
     14688 MEMB     129      SAPS     C1       CTL2    -0.800000E-01   12.0110           0
     14689 MEMB     129      SAPS     HA       HAL2     0.900000E-01   1.00800           0
     14690 MEMB     129      SAPS     HB       HAL2     0.900000E-01   1.00800           0
     14691 MEMB     129      SAPS     C2       CTL1     0.170000       12.0110           0
     14692 MEMB     129      SAPS     HS       HAL1     0.900000E-01   1.00800           0
     14693 MEMB     129      SAPS     O21      OSL     -0.490000       15.9994           0
     14694 MEMB     129      SAPS     C21      CL       0.900000       12.0110           0
     14695 MEMB     129      SAPS     O22      OBL     -0.630000       15.9994           0
     14696 MEMB     129      SAPS     C22      CTL2    -0.220000       12.0110           0
     14697 MEMB     129      SAPS     H2R      HAL2     0.900000E-01   1.00800           0
     14698 MEMB     129      SAPS     H2S      HAL2     0.900000E-01   1.00800           0
     14699 MEMB     129      SAPS     C3       CTL2     0.800000E-01   12.0110           0
     14700 MEMB     129      SAPS     HX       HAL2     0.900000E-01   1.00800           0
     14701 MEMB     129      SAPS     HY       HAL2     0.900000E-01   1.00800           0
     14702 MEMB     129      SAPS     O31      OSL     -0.490000       15.9994           0
     14703 MEMB     129      SAPS     C31      CL       0.900000       12.0110           0
     14704 MEMB     129      SAPS     O32      OBL     -0.630000       15.9994           0
     14705 MEMB     129      SAPS     C32      CTL2    -0.220000       12.0110           0
     14706 MEMB     129      SAPS     H2X      HAL2     0.900000E-01   1.00800           0
     14707 MEMB     129      SAPS     H2Y      HAL2     0.900000E-01   1.00800           0
     14708 MEMB     129      SAPS     C23      CTL2    -0.180000       12.0110           0
     14709 MEMB     129      SAPS     H3R      HAL2     0.900000E-01   1.00800           0
     14710 MEMB     129      SAPS     H3S      HAL2     0.900000E-01   1.00800           0
     14711 MEMB     129      SAPS     C24      CTL2    -0.180000       12.0110           0
     14712 MEMB     129      SAPS     H4R      HAL2     0.900000E-01   1.00800           0
     14713 MEMB     129      SAPS     H4S      HAL2     0.900000E-01   1.00800           0
     14714 MEMB     129      SAPS     C25      CEL1    -0.150000       12.0110           0
     14715 MEMB     129      SAPS     H5R      HEL1     0.150000       1.00800           0
     14716 MEMB     129      SAPS     C26      CEL1    -0.150000       12.0110           0
     14717 MEMB     129      SAPS     H6R      HEL1     0.150000       1.00800           0
     14718 MEMB     129      SAPS     C27      CTL2    -0.180000       12.0110           0
     14719 MEMB     129      SAPS     H7R      HAL2     0.900000E-01   1.00800           0
     14720 MEMB     129      SAPS     H7S      HAL2     0.900000E-01   1.00800           0
     14721 MEMB     129      SAPS     C28      CEL1    -0.150000       12.0110           0
     14722 MEMB     129      SAPS     H8R      HEL1     0.150000       1.00800           0
     14723 MEMB     129      SAPS     C29      CEL1    -0.150000       12.0110           0
     14724 MEMB     129      SAPS     H9R      HEL1     0.150000       1.00800           0
     14725 MEMB     129      SAPS     C210     CTL2    -0.180000       12.0110           0
     14726 MEMB     129      SAPS     H10R     HAL2     0.900000E-01   1.00800           0
     14727 MEMB     129      SAPS     H10S     HAL2     0.900000E-01   1.00800           0
     14728 MEMB     129      SAPS     C211     CEL1    -0.150000       12.0110           0
     14729 MEMB     129      SAPS     H11R     HEL1     0.150000       1.00800           0
     14730 MEMB     129      SAPS     C212     CEL1    -0.150000       12.0110           0
     14731 MEMB     129      SAPS     H12R     HEL1     0.150000       1.00800           0
     14732 MEMB     129      SAPS     C213     CTL2    -0.180000       12.0110           0
     14733 MEMB     129      SAPS     H13R     HAL2     0.900000E-01   1.00800           0
     14734 MEMB     129      SAPS     H13S     HAL2     0.900000E-01   1.00800           0
     14735 MEMB     129      SAPS     C214     CEL1    -0.150000       12.0110           0
     14736 MEMB     129      SAPS     H14R     HEL1     0.150000       1.00800           0
     14737 MEMB     129      SAPS     C215     CEL1    -0.150000       12.0110           0
     14738 MEMB     129      SAPS     H15R     HEL1     0.150000       1.00800           0
     14739 MEMB     129      SAPS     C216     CTL2    -0.180000       12.0110           0
     14740 MEMB     129      SAPS     H16R     HAL2     0.900000E-01   1.00800           0
     14741 MEMB     129      SAPS     H16S     HAL2     0.900000E-01   1.00800           0
     14742 MEMB     129      SAPS     C217     CTL2    -0.180000       12.0110           0
     14743 MEMB     129      SAPS     H17R     HAL2     0.900000E-01   1.00800           0
     14744 MEMB     129      SAPS     H17S     HAL2     0.900000E-01   1.00800           0
     14745 MEMB     129      SAPS     C218     CTL2    -0.180000       12.0110           0
     14746 MEMB     129      SAPS     H18R     HAL2     0.900000E-01   1.00800           0
     14747 MEMB     129      SAPS     H18S     HAL2     0.900000E-01   1.00800           0
     14748 MEMB     129      SAPS     C219     CTL2    -0.180000       12.0110           0
     14749 MEMB     129      SAPS     H19R     HAL2     0.900000E-01   1.00800           0
     14750 MEMB     129      SAPS     H19S     HAL2     0.900000E-01   1.00800           0
     14751 MEMB     129      SAPS     C220     CTL3    -0.270000       12.0110           0
     14752 MEMB     129      SAPS     H20R     HAL3     0.900000E-01   1.00800           0
     14753 MEMB     129      SAPS     H20S     HAL3     0.900000E-01   1.00800           0
     14754 MEMB     129      SAPS     H20T     HAL3     0.900000E-01   1.00800           0
     14755 MEMB     129      SAPS     C33      CTL2    -0.180000       12.0110           0
     14756 MEMB     129      SAPS     H3X      HAL2     0.900000E-01   1.00800           0
     14757 MEMB     129      SAPS     H3Y      HAL2     0.900000E-01   1.00800           0
     14758 MEMB     129      SAPS     C34      CTL2    -0.180000       12.0110           0
     14759 MEMB     129      SAPS     H4X      HAL2     0.900000E-01   1.00800           0
     14760 MEMB     129      SAPS     H4Y      HAL2     0.900000E-01   1.00800           0
     14761 MEMB     129      SAPS     C35      CTL2    -0.180000       12.0110           0
     14762 MEMB     129      SAPS     H5X      HAL2     0.900000E-01   1.00800           0
     14763 MEMB     129      SAPS     H5Y      HAL2     0.900000E-01   1.00800           0
     14764 MEMB     129      SAPS     C36      CTL2    -0.180000       12.0110           0
     14765 MEMB     129      SAPS     H6X      HAL2     0.900000E-01   1.00800           0
     14766 MEMB     129      SAPS     H6Y      HAL2     0.900000E-01   1.00800           0
     14767 MEMB     129      SAPS     C37      CTL2    -0.180000       12.0110           0
     14768 MEMB     129      SAPS     H7X      HAL2     0.900000E-01   1.00800           0
     14769 MEMB     129      SAPS     H7Y      HAL2     0.900000E-01   1.00800           0
     14770 MEMB     129      SAPS     C38      CTL2    -0.180000       12.0110           0
     14771 MEMB     129      SAPS     H8X      HAL2     0.900000E-01   1.00800           0
     14772 MEMB     129      SAPS     H8Y      HAL2     0.900000E-01   1.00800           0
     14773 MEMB     129      SAPS     C39      CTL2    -0.180000       12.0110           0
     14774 MEMB     129      SAPS     H9X      HAL2     0.900000E-01   1.00800           0
     14775 MEMB     129      SAPS     H9Y      HAL2     0.900000E-01   1.00800           0
     14776 MEMB     129      SAPS     C310     CTL2    -0.180000       12.0110           0
     14777 MEMB     129      SAPS     H10X     HAL2     0.900000E-01   1.00800           0
     14778 MEMB     129      SAPS     H10Y     HAL2     0.900000E-01   1.00800           0
     14779 MEMB     129      SAPS     C311     CTL2    -0.180000       12.0110           0
     14780 MEMB     129      SAPS     H11X     HAL2     0.900000E-01   1.00800           0
     14781 MEMB     129      SAPS     H11Y     HAL2     0.900000E-01   1.00800           0
     14782 MEMB     129      SAPS     C312     CTL2    -0.180000       12.0110           0
     14783 MEMB     129      SAPS     H12X     HAL2     0.900000E-01   1.00800           0
     14784 MEMB     129      SAPS     H12Y     HAL2     0.900000E-01   1.00800           0
     14785 MEMB     129      SAPS     C313     CTL2    -0.180000       12.0110           0
     14786 MEMB     129      SAPS     H13X     HAL2     0.900000E-01   1.00800           0
     14787 MEMB     129      SAPS     H13Y     HAL2     0.900000E-01   1.00800           0
     14788 MEMB     129      SAPS     C314     CTL2    -0.180000       12.0110           0
     14789 MEMB     129      SAPS     H14X     HAL2     0.900000E-01   1.00800           0
     14790 MEMB     129      SAPS     H14Y     HAL2     0.900000E-01   1.00800           0
     14791 MEMB     129      SAPS     C315     CTL2    -0.180000       12.0110           0
     14792 MEMB     129      SAPS     H15X     HAL2     0.900000E-01   1.00800           0
     14793 MEMB     129      SAPS     H15Y     HAL2     0.900000E-01   1.00800           0
     14794 MEMB     129      SAPS     C316     CTL2    -0.180000       12.0110           0
     14795 MEMB     129      SAPS     H16X     HAL2     0.900000E-01   1.00800           0
     14796 MEMB     129      SAPS     H16Y     HAL2     0.900000E-01   1.00800           0
     14797 MEMB     129      SAPS     C317     CTL2    -0.180000       12.0110           0
     14798 MEMB     129      SAPS     H17X     HAL2     0.900000E-01   1.00800           0
     14799 MEMB     129      SAPS     H17Y     HAL2     0.900000E-01   1.00800           0
     14800 MEMB     129      SAPS     C318     CTL3    -0.270000       12.0110           0
     14801 MEMB     129      SAPS     H18X     HAL3     0.900000E-01   1.00800           0
     14802 MEMB     129      SAPS     H18Y     HAL3     0.900000E-01   1.00800           0
     14803 MEMB     129      SAPS     H18Z     HAL3     0.900000E-01   1.00800           0
     14804 MEMB     130      OSM      N        NTL     -0.600000       14.0070           0
     14805 MEMB     130      OSM      C15      CTL5    -0.350000       12.0110           0
     14806 MEMB     130      OSM      H15A     HL       0.250000       1.00800           0
     14807 MEMB     130      OSM      H15B     HL       0.250000       1.00800           0
     14808 MEMB     130      OSM      H15C     HL       0.250000       1.00800           0
     14809 MEMB     130      OSM      C14      CTL5    -0.350000       12.0110           0
     14810 MEMB     130      OSM      H14A     HL       0.250000       1.00800           0
     14811 MEMB     130      OSM      H14B     HL       0.250000       1.00800           0
     14812 MEMB     130      OSM      H14C     HL       0.250000       1.00800           0
     14813 MEMB     130      OSM      C13      CTL5    -0.350000       12.0110           0
     14814 MEMB     130      OSM      H13A     HL       0.250000       1.00800           0
     14815 MEMB     130      OSM      H13B     HL       0.250000       1.00800           0
     14816 MEMB     130      OSM      H13C     HL       0.250000       1.00800           0
     14817 MEMB     130      OSM      C12      CTL2    -0.100000       12.0110           0
     14818 MEMB     130      OSM      H12A     HL       0.250000       1.00800           0
     14819 MEMB     130      OSM      H12B     HL       0.250000       1.00800           0
     14820 MEMB     130      OSM      C11      CTL2    -0.800000E-01   12.0110           0
     14821 MEMB     130      OSM      H11A     HAL2     0.900000E-01   1.00800           0
     14822 MEMB     130      OSM      H11B     HAL2     0.900000E-01   1.00800           0
     14823 MEMB     130      OSM      P        PL        1.50000       30.9740           0
     14824 MEMB     130      OSM      O13      O2L     -0.780000       15.9994           0
     14825 MEMB     130      OSM      O14      O2L     -0.780000       15.9994           0
     14826 MEMB     130      OSM      O11      OSLP    -0.570000       15.9994           0
     14827 MEMB     130      OSM      O12      OSLP    -0.570000       15.9994           0
     14828 MEMB     130      OSM      C1S      CTL2    -0.800000E-01   12.0110           0
     14829 MEMB     130      OSM      H1S      HAL2     0.900000E-01   1.00800           0
     14830 MEMB     130      OSM      H1T      HAL2     0.900000E-01   1.00800           0
     14831 MEMB     130      OSM      NF       NHL     -0.700000       14.0070           0
     14832 MEMB     130      OSM      HNF      H        0.350000       1.00800           0
     14833 MEMB     130      OSM      C2S      CTL1     0.300000       12.0110           0
     14834 MEMB     130      OSM      H2S      HAL1     0.500000E-01   1.00800           0
     14835 MEMB     130      OSM      C3S      CTO1     0.500000       12.0110           0
     14836 MEMB     130      OSM      H3S      HAL1    -0.110000       1.00800           0
     14837 MEMB     130      OSM      O3       OHL     -0.690000       15.9994           0
     14838 MEMB     130      OSM      HO3      HOL      0.300000       1.00800           0
     14839 MEMB     130      OSM      C4S      CEL3    -0.150000       12.0110           0
     14840 MEMB     130      OSM      H4S      HEL1     0.150000       1.00800           0
     14841 MEMB     130      OSM      C5S      CEL3    -0.150000       12.0110           0
     14842 MEMB     130      OSM      H5S      HEL1     0.150000       1.00800           0
     14843 MEMB     130      OSM      C6S      CTL2    -0.180000       12.0110           0
     14844 MEMB     130      OSM      H6S      HAL2     0.900000E-01   1.00800           0
     14845 MEMB     130      OSM      H6T      HAL2     0.900000E-01   1.00800           0
     14846 MEMB     130      OSM      C7S      CTL2    -0.180000       12.0110           0
     14847 MEMB     130      OSM      H7S      HAL2     0.900000E-01   1.00800           0
     14848 MEMB     130      OSM      H7T      HAL2     0.900000E-01   1.00800           0
     14849 MEMB     130      OSM      C8S      CTL2    -0.180000       12.0110           0
     14850 MEMB     130      OSM      H8S      HAL2     0.900000E-01   1.00800           0
     14851 MEMB     130      OSM      H8T      HAL2     0.900000E-01   1.00800           0
     14852 MEMB     130      OSM      C9S      CTL2    -0.180000       12.0110           0
     14853 MEMB     130      OSM      H9S      HAL2     0.900000E-01   1.00800           0
     14854 MEMB     130      OSM      H9T      HAL2     0.900000E-01   1.00800           0
     14855 MEMB     130      OSM      C10S     CTL2    -0.180000       12.0110           0
     14856 MEMB     130      OSM      H10S     HAL2     0.900000E-01   1.00800           0
     14857 MEMB     130      OSM      H10T     HAL2     0.900000E-01   1.00800           0
     14858 MEMB     130      OSM      C11S     CTL2    -0.180000       12.0110           0
     14859 MEMB     130      OSM      H11S     HAL2     0.900000E-01   1.00800           0
     14860 MEMB     130      OSM      H11T     HAL2     0.900000E-01   1.00800           0
     14861 MEMB     130      OSM      C12S     CTL2    -0.180000       12.0110           0
     14862 MEMB     130      OSM      H12S     HAL2     0.900000E-01   1.00800           0
     14863 MEMB     130      OSM      H12T     HAL2     0.900000E-01   1.00800           0
     14864 MEMB     130      OSM      C13S     CTL2    -0.180000       12.0110           0
     14865 MEMB     130      OSM      H13S     HAL2     0.900000E-01   1.00800           0
     14866 MEMB     130      OSM      H13T     HAL2     0.900000E-01   1.00800           0
     14867 MEMB     130      OSM      C14S     CTL2    -0.180000       12.0110           0
     14868 MEMB     130      OSM      H14S     HAL2     0.900000E-01   1.00800           0
     14869 MEMB     130      OSM      H14T     HAL2     0.900000E-01   1.00800           0
     14870 MEMB     130      OSM      C15S     CTL2    -0.180000       12.0110           0
     14871 MEMB     130      OSM      H15S     HAL2     0.900000E-01   1.00800           0
     14872 MEMB     130      OSM      H15T     HAL2     0.900000E-01   1.00800           0
     14873 MEMB     130      OSM      C16S     CTL2    -0.180000       12.0110           0
     14874 MEMB     130      OSM      H16S     HAL2     0.900000E-01   1.00800           0
     14875 MEMB     130      OSM      H16T     HAL2     0.900000E-01   1.00800           0
     14876 MEMB     130      OSM      C17S     CTL2    -0.180000       12.0110           0
     14877 MEMB     130      OSM      H17S     HAL2     0.900000E-01   1.00800           0
     14878 MEMB     130      OSM      H17T     HAL2     0.900000E-01   1.00800           0
     14879 MEMB     130      OSM      C18S     CTL3    -0.270000       12.0110           0
     14880 MEMB     130      OSM      H18S     HAL3     0.900000E-01   1.00800           0
     14881 MEMB     130      OSM      H18T     HAL3     0.900000E-01   1.00800           0
     14882 MEMB     130      OSM      H18U     HAL3     0.900000E-01   1.00800           0
     14883 MEMB     130      OSM      C1F      C        0.550000       12.0110           0
     14884 MEMB     130      OSM      OF       O       -0.600000       15.9994           0
     14885 MEMB     130      OSM      C2F      CTL2    -0.700000E-01   12.0110           0
     14886 MEMB     130      OSM      H2F      HAL2     0.600000E-01   1.00800           0
     14887 MEMB     130      OSM      H2G      HAL2     0.600000E-01   1.00800           0
     14888 MEMB     130      OSM      C3F      CTL2    -0.180000       12.0110           0
     14889 MEMB     130      OSM      H3F      HAL2     0.900000E-01   1.00800           0
     14890 MEMB     130      OSM      H3G      HAL2     0.900000E-01   1.00800           0
     14891 MEMB     130      OSM      C4F      CTL2    -0.180000       12.0110           0
     14892 MEMB     130      OSM      H4F      HAL2     0.900000E-01   1.00800           0
     14893 MEMB     130      OSM      H4G      HAL2     0.900000E-01   1.00800           0
     14894 MEMB     130      OSM      C5F      CTL2    -0.180000       12.0110           0
     14895 MEMB     130      OSM      H5F      HAL2     0.900000E-01   1.00800           0
     14896 MEMB     130      OSM      H5G      HAL2     0.900000E-01   1.00800           0
     14897 MEMB     130      OSM      C6F      CTL2    -0.180000       12.0110           0
     14898 MEMB     130      OSM      H6F      HAL2     0.900000E-01   1.00800           0
     14899 MEMB     130      OSM      H6G      HAL2     0.900000E-01   1.00800           0
     14900 MEMB     130      OSM      C7F      CTL2    -0.180000       12.0110           0
     14901 MEMB     130      OSM      H7F      HAL2     0.900000E-01   1.00800           0
     14902 MEMB     130      OSM      H7G      HAL2     0.900000E-01   1.00800           0
     14903 MEMB     130      OSM      C8F      CTL2    -0.180000       12.0110           0
     14904 MEMB     130      OSM      H8F      HAL2     0.900000E-01   1.00800           0
     14905 MEMB     130      OSM      H8G      HAL2     0.900000E-01   1.00800           0
     14906 MEMB     130      OSM      C9F      CEL1    -0.150000       12.0110           0
     14907 MEMB     130      OSM      H9F      HEL1     0.150000       1.00800           0
     14908 MEMB     130      OSM      C10F     CEL1    -0.150000       12.0110           0
     14909 MEMB     130      OSM      H10F     HEL1     0.150000       1.00800           0
     14910 MEMB     130      OSM      C11F     CTL2    -0.180000       12.0110           0
     14911 MEMB     130      OSM      H11F     HAL2     0.900000E-01   1.00800           0
     14912 MEMB     130      OSM      H11G     HAL2     0.900000E-01   1.00800           0
     14913 MEMB     130      OSM      C12F     CTL2    -0.180000       12.0110           0
     14914 MEMB     130      OSM      H12F     HAL2     0.900000E-01   1.00800           0
     14915 MEMB     130      OSM      H12G     HAL2     0.900000E-01   1.00800           0
     14916 MEMB     130      OSM      C13F     CTL2    -0.180000       12.0110           0
     14917 MEMB     130      OSM      H13F     HAL2     0.900000E-01   1.00800           0
     14918 MEMB     130      OSM      H13G     HAL2     0.900000E-01   1.00800           0
     14919 MEMB     130      OSM      C14F     CTL2    -0.180000       12.0110           0
     14920 MEMB     130      OSM      H14F     HAL2     0.900000E-01   1.00800           0
     14921 MEMB     130      OSM      H14G     HAL2     0.900000E-01   1.00800           0
     14922 MEMB     130      OSM      C15F     CTL2    -0.180000       12.0110           0
     14923 MEMB     130      OSM      H15F     HAL2     0.900000E-01   1.00800           0
     14924 MEMB     130      OSM      H15G     HAL2     0.900000E-01   1.00800           0
     14925 MEMB     130      OSM      C16F     CTL2    -0.180000       12.0110           0
     14926 MEMB     130      OSM      H16F     HAL2     0.900000E-01   1.00800           0
     14927 MEMB     130      OSM      H16G     HAL2     0.900000E-01   1.00800           0
     14928 MEMB     130      OSM      C17F     CTL2    -0.180000       12.0110           0
     14929 MEMB     130      OSM      H17F     HAL2     0.900000E-01   1.00800           0
     14930 MEMB     130      OSM      H17G     HAL2     0.900000E-01   1.00800           0
     14931 MEMB     130      OSM      C18F     CTL3    -0.270000       12.0110           0
     14932 MEMB     130      OSM      H18F     HAL3     0.900000E-01   1.00800           0
     14933 MEMB     130      OSM      H18G     HAL3     0.900000E-01   1.00800           0
     14934 MEMB     130      OSM      H18H     HAL3     0.900000E-01   1.00800           0
     14935 MEMB     131      SLPC     N        NTL     -0.600000       14.0070           0
     14936 MEMB     131      SLPC     C13      CTL5    -0.350000       12.0110           0
     14937 MEMB     131      SLPC     H13A     HL       0.250000       1.00800           0
     14938 MEMB     131      SLPC     H13B     HL       0.250000       1.00800           0
     14939 MEMB     131      SLPC     H13C     HL       0.250000       1.00800           0
     14940 MEMB     131      SLPC     C14      CTL5    -0.350000       12.0110           0
     14941 MEMB     131      SLPC     H14A     HL       0.250000       1.00800           0
     14942 MEMB     131      SLPC     H14B     HL       0.250000       1.00800           0
     14943 MEMB     131      SLPC     H14C     HL       0.250000       1.00800           0
     14944 MEMB     131      SLPC     C15      CTL5    -0.350000       12.0110           0
     14945 MEMB     131      SLPC     H15A     HL       0.250000       1.00800           0
     14946 MEMB     131      SLPC     H15B     HL       0.250000       1.00800           0
     14947 MEMB     131      SLPC     H15C     HL       0.250000       1.00800           0
     14948 MEMB     131      SLPC     C12      CTL2    -0.100000       12.0110           0
     14949 MEMB     131      SLPC     H12A     HL       0.250000       1.00800           0
     14950 MEMB     131      SLPC     H12B     HL       0.250000       1.00800           0
     14951 MEMB     131      SLPC     C11      CTL2    -0.800000E-01   12.0110           0
     14952 MEMB     131      SLPC     H11A     HAL2     0.900000E-01   1.00800           0
     14953 MEMB     131      SLPC     H11B     HAL2     0.900000E-01   1.00800           0
     14954 MEMB     131      SLPC     P        PL        1.50000       30.9740           0
     14955 MEMB     131      SLPC     O13      O2L     -0.780000       15.9994           0
     14956 MEMB     131      SLPC     O14      O2L     -0.780000       15.9994           0
     14957 MEMB     131      SLPC     O12      OSLP    -0.570000       15.9994           0
     14958 MEMB     131      SLPC     O11      OSLP    -0.570000       15.9994           0
     14959 MEMB     131      SLPC     C1       CTL2    -0.800000E-01   12.0110           0
     14960 MEMB     131      SLPC     HA       HAL2     0.900000E-01   1.00800           0
     14961 MEMB     131      SLPC     HB       HAL2     0.900000E-01   1.00800           0
     14962 MEMB     131      SLPC     C2       CTL1     0.170000       12.0110           0
     14963 MEMB     131      SLPC     HS       HAL1     0.900000E-01   1.00800           0
     14964 MEMB     131      SLPC     O21      OSL     -0.490000       15.9994           0
     14965 MEMB     131      SLPC     C21      CL       0.900000       12.0110           0
     14966 MEMB     131      SLPC     O22      OBL     -0.630000       15.9994           0
     14967 MEMB     131      SLPC     C22      CTL2    -0.220000       12.0110           0
     14968 MEMB     131      SLPC     H2R      HAL2     0.900000E-01   1.00800           0
     14969 MEMB     131      SLPC     H2S      HAL2     0.900000E-01   1.00800           0
     14970 MEMB     131      SLPC     C3       CTL2     0.800000E-01   12.0110           0
     14971 MEMB     131      SLPC     HX       HAL2     0.900000E-01   1.00800           0
     14972 MEMB     131      SLPC     HY       HAL2     0.900000E-01   1.00800           0
     14973 MEMB     131      SLPC     O31      OSL     -0.490000       15.9994           0
     14974 MEMB     131      SLPC     C31      CL       0.900000       12.0110           0
     14975 MEMB     131      SLPC     O32      OBL     -0.630000       15.9994           0
     14976 MEMB     131      SLPC     C32      CTL2    -0.220000       12.0110           0
     14977 MEMB     131      SLPC     H2X      HAL2     0.900000E-01   1.00800           0
     14978 MEMB     131      SLPC     H2Y      HAL2     0.900000E-01   1.00800           0
     14979 MEMB     131      SLPC     C23      CTL2    -0.180000       12.0110           0
     14980 MEMB     131      SLPC     H3R      HAL2     0.900000E-01   1.00800           0
     14981 MEMB     131      SLPC     H3S      HAL2     0.900000E-01   1.00800           0
     14982 MEMB     131      SLPC     C24      CTL2    -0.180000       12.0110           0
     14983 MEMB     131      SLPC     H4R      HAL2     0.900000E-01   1.00800           0
     14984 MEMB     131      SLPC     H4S      HAL2     0.900000E-01   1.00800           0
     14985 MEMB     131      SLPC     C25      CTL2    -0.180000       12.0110           0
     14986 MEMB     131      SLPC     H5R      HAL2     0.900000E-01   1.00800           0
     14987 MEMB     131      SLPC     H5S      HAL2     0.900000E-01   1.00800           0
     14988 MEMB     131      SLPC     C26      CTL2    -0.180000       12.0110           0
     14989 MEMB     131      SLPC     H6R      HAL2     0.900000E-01   1.00800           0
     14990 MEMB     131      SLPC     H6S      HAL2     0.900000E-01   1.00800           0
     14991 MEMB     131      SLPC     C27      CTL2    -0.180000       12.0110           0
     14992 MEMB     131      SLPC     H7R      HAL2     0.900000E-01   1.00800           0
     14993 MEMB     131      SLPC     H7S      HAL2     0.900000E-01   1.00800           0
     14994 MEMB     131      SLPC     C28      CTL2    -0.180000       12.0110           0
     14995 MEMB     131      SLPC     H8R      HAL2     0.900000E-01   1.00800           0
     14996 MEMB     131      SLPC     H8S      HAL2     0.900000E-01   1.00800           0
     14997 MEMB     131      SLPC     C29      CEL1    -0.150000       12.0110           0
     14998 MEMB     131      SLPC     H9R      HEL1     0.150000       1.00800           0
     14999 MEMB     131      SLPC     C210     CEL1    -0.150000       12.0110           0
     15000 MEMB     131      SLPC     H10R     HEL1     0.150000       1.00800           0
     15001 MEMB     131      SLPC     C211     CTL2    -0.180000       12.0110           0
     15002 MEMB     131      SLPC     H11R     HAL2     0.900000E-01   1.00800           0
     15003 MEMB     131      SLPC     H11S     HAL2     0.900000E-01   1.00800           0
     15004 MEMB     131      SLPC     C212     CEL1    -0.150000       12.0110           0
     15005 MEMB     131      SLPC     H12R     HEL1     0.150000       1.00800           0
     15006 MEMB     131      SLPC     C213     CEL1    -0.150000       12.0110           0
     15007 MEMB     131      SLPC     H13R     HEL1     0.150000       1.00800           0
     15008 MEMB     131      SLPC     C214     CTL2    -0.180000       12.0110           0
     15009 MEMB     131      SLPC     H14R     HAL2     0.900000E-01   1.00800           0
     15010 MEMB     131      SLPC     H14S     HAL2     0.900000E-01   1.00800           0
     15011 MEMB     131      SLPC     C215     CTL2    -0.180000       12.0110           0
     15012 MEMB     131      SLPC     H15R     HAL2     0.900000E-01   1.00800           0
     15013 MEMB     131      SLPC     H15S     HAL2     0.900000E-01   1.00800           0
     15014 MEMB     131      SLPC     C216     CTL2    -0.180000       12.0110           0
     15015 MEMB     131      SLPC     H16R     HAL2     0.900000E-01   1.00800           0
     15016 MEMB     131      SLPC     H16S     HAL2     0.900000E-01   1.00800           0
     15017 MEMB     131      SLPC     C217     CTL2    -0.180000       12.0110           0
     15018 MEMB     131      SLPC     H17R     HAL2     0.900000E-01   1.00800           0
     15019 MEMB     131      SLPC     H17S     HAL2     0.900000E-01   1.00800           0
     15020 MEMB     131      SLPC     C218     CTL3    -0.270000       12.0110           0
     15021 MEMB     131      SLPC     H18R     HAL3     0.900000E-01   1.00800           0
     15022 MEMB     131      SLPC     H18S     HAL3     0.900000E-01   1.00800           0
     15023 MEMB     131      SLPC     H18T     HAL3     0.900000E-01   1.00800           0
     15024 MEMB     131      SLPC     C33      CTL2    -0.180000       12.0110           0
     15025 MEMB     131      SLPC     H3X      HAL2     0.900000E-01   1.00800           0
     15026 MEMB     131      SLPC     H3Y      HAL2     0.900000E-01   1.00800           0
     15027 MEMB     131      SLPC     C34      CTL2    -0.180000       12.0110           0
     15028 MEMB     131      SLPC     H4X      HAL2     0.900000E-01   1.00800           0
     15029 MEMB     131      SLPC     H4Y      HAL2     0.900000E-01   1.00800           0
     15030 MEMB     131      SLPC     C35      CTL2    -0.180000       12.0110           0
     15031 MEMB     131      SLPC     H5X      HAL2     0.900000E-01   1.00800           0
     15032 MEMB     131      SLPC     H5Y      HAL2     0.900000E-01   1.00800           0
     15033 MEMB     131      SLPC     C36      CTL2    -0.180000       12.0110           0
     15034 MEMB     131      SLPC     H6X      HAL2     0.900000E-01   1.00800           0
     15035 MEMB     131      SLPC     H6Y      HAL2     0.900000E-01   1.00800           0
     15036 MEMB     131      SLPC     C37      CTL2    -0.180000       12.0110           0
     15037 MEMB     131      SLPC     H7X      HAL2     0.900000E-01   1.00800           0
     15038 MEMB     131      SLPC     H7Y      HAL2     0.900000E-01   1.00800           0
     15039 MEMB     131      SLPC     C38      CTL2    -0.180000       12.0110           0
     15040 MEMB     131      SLPC     H8X      HAL2     0.900000E-01   1.00800           0
     15041 MEMB     131      SLPC     H8Y      HAL2     0.900000E-01   1.00800           0
     15042 MEMB     131      SLPC     C39      CTL2    -0.180000       12.0110           0
     15043 MEMB     131      SLPC     H9X      HAL2     0.900000E-01   1.00800           0
     15044 MEMB     131      SLPC     H9Y      HAL2     0.900000E-01   1.00800           0
     15045 MEMB     131      SLPC     C310     CTL2    -0.180000       12.0110           0
     15046 MEMB     131      SLPC     H10X     HAL2     0.900000E-01   1.00800           0
     15047 MEMB     131      SLPC     H10Y     HAL2     0.900000E-01   1.00800           0
     15048 MEMB     131      SLPC     C311     CTL2    -0.180000       12.0110           0
     15049 MEMB     131      SLPC     H11X     HAL2     0.900000E-01   1.00800           0
     15050 MEMB     131      SLPC     H11Y     HAL2     0.900000E-01   1.00800           0
     15051 MEMB     131      SLPC     C312     CTL2    -0.180000       12.0110           0
     15052 MEMB     131      SLPC     H12X     HAL2     0.900000E-01   1.00800           0
     15053 MEMB     131      SLPC     H12Y     HAL2     0.900000E-01   1.00800           0
     15054 MEMB     131      SLPC     C313     CTL2    -0.180000       12.0110           0
     15055 MEMB     131      SLPC     H13X     HAL2     0.900000E-01   1.00800           0
     15056 MEMB     131      SLPC     H13Y     HAL2     0.900000E-01   1.00800           0
     15057 MEMB     131      SLPC     C314     CTL2    -0.180000       12.0110           0
     15058 MEMB     131      SLPC     H14X     HAL2     0.900000E-01   1.00800           0
     15059 MEMB     131      SLPC     H14Y     HAL2     0.900000E-01   1.00800           0
     15060 MEMB     131      SLPC     C315     CTL2    -0.180000       12.0110           0
     15061 MEMB     131      SLPC     H15X     HAL2     0.900000E-01   1.00800           0
     15062 MEMB     131      SLPC     H15Y     HAL2     0.900000E-01   1.00800           0
     15063 MEMB     131      SLPC     C316     CTL2    -0.180000       12.0110           0
     15064 MEMB     131      SLPC     H16X     HAL2     0.900000E-01   1.00800           0
     15065 MEMB     131      SLPC     H16Y     HAL2     0.900000E-01   1.00800           0
     15066 MEMB     131      SLPC     C317     CTL2    -0.180000       12.0110           0
     15067 MEMB     131      SLPC     H17X     HAL2     0.900000E-01   1.00800           0
     15068 MEMB     131      SLPC     H17Y     HAL2     0.900000E-01   1.00800           0
     15069 MEMB     131      SLPC     C318     CTL3    -0.270000       12.0110           0
     15070 MEMB     131      SLPC     H18X     HAL3     0.900000E-01   1.00800           0
     15071 MEMB     131      SLPC     H18Y     HAL3     0.900000E-01   1.00800           0
     15072 MEMB     131      SLPC     H18Z     HAL3     0.900000E-01   1.00800           0
     15073 MEMB     132      SAPE     N        NH3L    -0.300000       14.0070           0
     15074 MEMB     132      SAPE     HN1      HCL      0.330000       1.00800           0
     15075 MEMB     132      SAPE     HN2      HCL      0.330000       1.00800           0
     15076 MEMB     132      SAPE     HN3      HCL      0.330000       1.00800           0
     15077 MEMB     132      SAPE     C12      CTL2     0.130000       12.0110           0
     15078 MEMB     132      SAPE     H12A     HAL2     0.900000E-01   1.00800           0
     15079 MEMB     132      SAPE     H12B     HAL2     0.900000E-01   1.00800           0
     15080 MEMB     132      SAPE     C11      CTL2    -0.800000E-01   12.0110           0
     15081 MEMB     132      SAPE     H11A     HAL2     0.900000E-01   1.00800           0
     15082 MEMB     132      SAPE     H11B     HAL2     0.900000E-01   1.00800           0
     15083 MEMB     132      SAPE     P        PL        1.50000       30.9740           0
     15084 MEMB     132      SAPE     O13      O2L     -0.780000       15.9994           0
     15085 MEMB     132      SAPE     O14      O2L     -0.780000       15.9994           0
     15086 MEMB     132      SAPE     O12      OSLP    -0.570000       15.9994           0
     15087 MEMB     132      SAPE     O11      OSLP    -0.570000       15.9994           0
     15088 MEMB     132      SAPE     C1       CTL2    -0.800000E-01   12.0110           0
     15089 MEMB     132      SAPE     HA       HAL2     0.900000E-01   1.00800           0
     15090 MEMB     132      SAPE     HB       HAL2     0.900000E-01   1.00800           0
     15091 MEMB     132      SAPE     C2       CTL1     0.170000       12.0110           0
     15092 MEMB     132      SAPE     HS       HAL1     0.900000E-01   1.00800           0
     15093 MEMB     132      SAPE     O21      OSL     -0.490000       15.9994           0
     15094 MEMB     132      SAPE     C21      CL       0.900000       12.0110           0
     15095 MEMB     132      SAPE     O22      OBL     -0.630000       15.9994           0
     15096 MEMB     132      SAPE     C22      CTL2    -0.220000       12.0110           0
     15097 MEMB     132      SAPE     H2R      HAL2     0.900000E-01   1.00800           0
     15098 MEMB     132      SAPE     H2S      HAL2     0.900000E-01   1.00800           0
     15099 MEMB     132      SAPE     C3       CTL2     0.800000E-01   12.0110           0
     15100 MEMB     132      SAPE     HX       HAL2     0.900000E-01   1.00800           0
     15101 MEMB     132      SAPE     HY       HAL2     0.900000E-01   1.00800           0
     15102 MEMB     132      SAPE     O31      OSL     -0.490000       15.9994           0
     15103 MEMB     132      SAPE     C31      CL       0.900000       12.0110           0
     15104 MEMB     132      SAPE     O32      OBL     -0.630000       15.9994           0
     15105 MEMB     132      SAPE     C32      CTL2    -0.220000       12.0110           0
     15106 MEMB     132      SAPE     H2X      HAL2     0.900000E-01   1.00800           0
     15107 MEMB     132      SAPE     H2Y      HAL2     0.900000E-01   1.00800           0
     15108 MEMB     132      SAPE     C23      CTL2    -0.180000       12.0110           0
     15109 MEMB     132      SAPE     H3R      HAL2     0.900000E-01   1.00800           0
     15110 MEMB     132      SAPE     H3S      HAL2     0.900000E-01   1.00800           0
     15111 MEMB     132      SAPE     C24      CTL2    -0.180000       12.0110           0
     15112 MEMB     132      SAPE     H4R      HAL2     0.900000E-01   1.00800           0
     15113 MEMB     132      SAPE     H4S      HAL2     0.900000E-01   1.00800           0
     15114 MEMB     132      SAPE     C25      CEL1    -0.150000       12.0110           0
     15115 MEMB     132      SAPE     H5R      HEL1     0.150000       1.00800           0
     15116 MEMB     132      SAPE     C26      CEL1    -0.150000       12.0110           0
     15117 MEMB     132      SAPE     H6R      HEL1     0.150000       1.00800           0
     15118 MEMB     132      SAPE     C27      CTL2    -0.180000       12.0110           0
     15119 MEMB     132      SAPE     H7R      HAL2     0.900000E-01   1.00800           0
     15120 MEMB     132      SAPE     H7S      HAL2     0.900000E-01   1.00800           0
     15121 MEMB     132      SAPE     C28      CEL1    -0.150000       12.0110           0
     15122 MEMB     132      SAPE     H8R      HEL1     0.150000       1.00800           0
     15123 MEMB     132      SAPE     C29      CEL1    -0.150000       12.0110           0
     15124 MEMB     132      SAPE     H9R      HEL1     0.150000       1.00800           0
     15125 MEMB     132      SAPE     C210     CTL2    -0.180000       12.0110           0
     15126 MEMB     132      SAPE     H10R     HAL2     0.900000E-01   1.00800           0
     15127 MEMB     132      SAPE     H10S     HAL2     0.900000E-01   1.00800           0
     15128 MEMB     132      SAPE     C211     CEL1    -0.150000       12.0110           0
     15129 MEMB     132      SAPE     H11R     HEL1     0.150000       1.00800           0
     15130 MEMB     132      SAPE     C212     CEL1    -0.150000       12.0110           0
     15131 MEMB     132      SAPE     H12R     HEL1     0.150000       1.00800           0
     15132 MEMB     132      SAPE     C213     CTL2    -0.180000       12.0110           0
     15133 MEMB     132      SAPE     H13R     HAL2     0.900000E-01   1.00800           0
     15134 MEMB     132      SAPE     H13S     HAL2     0.900000E-01   1.00800           0
     15135 MEMB     132      SAPE     C214     CEL1    -0.150000       12.0110           0
     15136 MEMB     132      SAPE     H14R     HEL1     0.150000       1.00800           0
     15137 MEMB     132      SAPE     C215     CEL1    -0.150000       12.0110           0
     15138 MEMB     132      SAPE     H15R     HEL1     0.150000       1.00800           0
     15139 MEMB     132      SAPE     C216     CTL2    -0.180000       12.0110           0
     15140 MEMB     132      SAPE     H16R     HAL2     0.900000E-01   1.00800           0
     15141 MEMB     132      SAPE     H16S     HAL2     0.900000E-01   1.00800           0
     15142 MEMB     132      SAPE     C217     CTL2    -0.180000       12.0110           0
     15143 MEMB     132      SAPE     H17R     HAL2     0.900000E-01   1.00800           0
     15144 MEMB     132      SAPE     H17S     HAL2     0.900000E-01   1.00800           0
     15145 MEMB     132      SAPE     C218     CTL2    -0.180000       12.0110           0
     15146 MEMB     132      SAPE     H18R     HAL2     0.900000E-01   1.00800           0
     15147 MEMB     132      SAPE     H18S     HAL2     0.900000E-01   1.00800           0
     15148 MEMB     132      SAPE     C219     CTL2    -0.180000       12.0110           0
     15149 MEMB     132      SAPE     H19R     HAL2     0.900000E-01   1.00800           0
     15150 MEMB     132      SAPE     H19S     HAL2     0.900000E-01   1.00800           0
     15151 MEMB     132      SAPE     C220     CTL3    -0.270000       12.0110           0
     15152 MEMB     132      SAPE     H20R     HAL3     0.900000E-01   1.00800           0
     15153 MEMB     132      SAPE     H20S     HAL3     0.900000E-01   1.00800           0
     15154 MEMB     132      SAPE     H20T     HAL3     0.900000E-01   1.00800           0
     15155 MEMB     132      SAPE     C33      CTL2    -0.180000       12.0110           0
     15156 MEMB     132      SAPE     H3X      HAL2     0.900000E-01   1.00800           0
     15157 MEMB     132      SAPE     H3Y      HAL2     0.900000E-01   1.00800           0
     15158 MEMB     132      SAPE     C34      CTL2    -0.180000       12.0110           0
     15159 MEMB     132      SAPE     H4X      HAL2     0.900000E-01   1.00800           0
     15160 MEMB     132      SAPE     H4Y      HAL2     0.900000E-01   1.00800           0
     15161 MEMB     132      SAPE     C35      CTL2    -0.180000       12.0110           0
     15162 MEMB     132      SAPE     H5X      HAL2     0.900000E-01   1.00800           0
     15163 MEMB     132      SAPE     H5Y      HAL2     0.900000E-01   1.00800           0
     15164 MEMB     132      SAPE     C36      CTL2    -0.180000       12.0110           0
     15165 MEMB     132      SAPE     H6X      HAL2     0.900000E-01   1.00800           0
     15166 MEMB     132      SAPE     H6Y      HAL2     0.900000E-01   1.00800           0
     15167 MEMB     132      SAPE     C37      CTL2    -0.180000       12.0110           0
     15168 MEMB     132      SAPE     H7X      HAL2     0.900000E-01   1.00800           0
     15169 MEMB     132      SAPE     H7Y      HAL2     0.900000E-01   1.00800           0
     15170 MEMB     132      SAPE     C38      CTL2    -0.180000       12.0110           0
     15171 MEMB     132      SAPE     H8X      HAL2     0.900000E-01   1.00800           0
     15172 MEMB     132      SAPE     H8Y      HAL2     0.900000E-01   1.00800           0
     15173 MEMB     132      SAPE     C39      CTL2    -0.180000       12.0110           0
     15174 MEMB     132      SAPE     H9X      HAL2     0.900000E-01   1.00800           0
     15175 MEMB     132      SAPE     H9Y      HAL2     0.900000E-01   1.00800           0
     15176 MEMB     132      SAPE     C310     CTL2    -0.180000       12.0110           0
     15177 MEMB     132      SAPE     H10X     HAL2     0.900000E-01   1.00800           0
     15178 MEMB     132      SAPE     H10Y     HAL2     0.900000E-01   1.00800           0
     15179 MEMB     132      SAPE     C311     CTL2    -0.180000       12.0110           0
     15180 MEMB     132      SAPE     H11X     HAL2     0.900000E-01   1.00800           0
     15181 MEMB     132      SAPE     H11Y     HAL2     0.900000E-01   1.00800           0
     15182 MEMB     132      SAPE     C312     CTL2    -0.180000       12.0110           0
     15183 MEMB     132      SAPE     H12X     HAL2     0.900000E-01   1.00800           0
     15184 MEMB     132      SAPE     H12Y     HAL2     0.900000E-01   1.00800           0
     15185 MEMB     132      SAPE     C313     CTL2    -0.180000       12.0110           0
     15186 MEMB     132      SAPE     H13X     HAL2     0.900000E-01   1.00800           0
     15187 MEMB     132      SAPE     H13Y     HAL2     0.900000E-01   1.00800           0
     15188 MEMB     132      SAPE     C314     CTL2    -0.180000       12.0110           0
     15189 MEMB     132      SAPE     H14X     HAL2     0.900000E-01   1.00800           0
     15190 MEMB     132      SAPE     H14Y     HAL2     0.900000E-01   1.00800           0
     15191 MEMB     132      SAPE     C315     CTL2    -0.180000       12.0110           0
     15192 MEMB     132      SAPE     H15X     HAL2     0.900000E-01   1.00800           0
     15193 MEMB     132      SAPE     H15Y     HAL2     0.900000E-01   1.00800           0
     15194 MEMB     132      SAPE     C316     CTL2    -0.180000       12.0110           0
     15195 MEMB     132      SAPE     H16X     HAL2     0.900000E-01   1.00800           0
     15196 MEMB     132      SAPE     H16Y     HAL2     0.900000E-01   1.00800           0
     15197 MEMB     132      SAPE     C317     CTL2    -0.180000       12.0110           0
     15198 MEMB     132      SAPE     H17X     HAL2     0.900000E-01   1.00800           0
     15199 MEMB     132      SAPE     H17Y     HAL2     0.900000E-01   1.00800           0
     15200 MEMB     132      SAPE     C318     CTL3    -0.270000       12.0110           0
     15201 MEMB     132      SAPE     H18X     HAL3     0.900000E-01   1.00800           0
     15202 MEMB     132      SAPE     H18Y     HAL3     0.900000E-01   1.00800           0
     15203 MEMB     132      SAPE     H18Z     HAL3     0.900000E-01   1.00800           0
     15204 MEMB     133      CHL1     C3       CRL1     0.140000       12.0110           0
     15205 MEMB     133      CHL1     H3       HGA1     0.900000E-01   1.00800           0
     15206 MEMB     133      CHL1     O3       OHL     -0.660000       15.9994           0
     15207 MEMB     133      CHL1     H3'      HOL      0.430000       1.00800           0
     15208 MEMB     133      CHL1     C4       CRL2    -0.180000       12.0110           0
     15209 MEMB     133      CHL1     H4A      HGA2     0.900000E-01   1.00800           0
     15210 MEMB     133      CHL1     H4B      HGA2     0.900000E-01   1.00800           0
     15211 MEMB     133      CHL1     C5       CEL1      0.00000       12.0110           0
     15212 MEMB     133      CHL1     C6       CEL1    -0.150000       12.0110           0
     15213 MEMB     133      CHL1     H6       HEL1     0.150000       1.00800           0
     15214 MEMB     133      CHL1     C7       CRL2    -0.180000       12.0110           0
     15215 MEMB     133      CHL1     H7A      HGA2     0.900000E-01   1.00800           0
     15216 MEMB     133      CHL1     H7B      HGA2     0.900000E-01   1.00800           0
     15217 MEMB     133      CHL1     C8       CRL1    -0.900000E-01   12.0110           0
     15218 MEMB     133      CHL1     H8       HGA1     0.900000E-01   1.00800           0
     15219 MEMB     133      CHL1     C14      CRL1    -0.900000E-01   12.0110           0
     15220 MEMB     133      CHL1     H14      HGA1     0.900000E-01   1.00800           0
     15221 MEMB     133      CHL1     C15      CRL2    -0.180000       12.0110           0
     15222 MEMB     133      CHL1     H15A     HGA2     0.900000E-01   1.00800           0
     15223 MEMB     133      CHL1     H15B     HGA2     0.900000E-01   1.00800           0
     15224 MEMB     133      CHL1     C16      CRL2    -0.180000       12.0110           0
     15225 MEMB     133      CHL1     H16A     HGA2     0.900000E-01   1.00800           0
     15226 MEMB     133      CHL1     H16B     HGA2     0.900000E-01   1.00800           0
     15227 MEMB     133      CHL1     C17      CRL1    -0.900000E-01   12.0110           0
     15228 MEMB     133      CHL1     H17      HGA1     0.900000E-01   1.00800           0
     15229 MEMB     133      CHL1     C13      CRL1      0.00000       12.0110           0
     15230 MEMB     133      CHL1     C18      CTL3    -0.270000       12.0110           0
     15231 MEMB     133      CHL1     H18A     HAL3     0.900000E-01   1.00800           0
     15232 MEMB     133      CHL1     H18B     HAL3     0.900000E-01   1.00800           0
     15233 MEMB     133      CHL1     H18C     HAL3     0.900000E-01   1.00800           0
     15234 MEMB     133      CHL1     C12      CRL2    -0.180000       12.0110           0
     15235 MEMB     133      CHL1     H12A     HGA2     0.900000E-01   1.00800           0
     15236 MEMB     133      CHL1     H12B     HGA2     0.900000E-01   1.00800           0
     15237 MEMB     133      CHL1     C11      CRL2    -0.180000       12.0110           0
     15238 MEMB     133      CHL1     H11A     HGA2     0.900000E-01   1.00800           0
     15239 MEMB     133      CHL1     H11B     HGA2     0.900000E-01   1.00800           0
     15240 MEMB     133      CHL1     C9       CRL1    -0.900000E-01   12.0110           0
     15241 MEMB     133      CHL1     H9       HGA1     0.900000E-01   1.00800           0
     15242 MEMB     133      CHL1     C10      CRL1      0.00000       12.0110           0
     15243 MEMB     133      CHL1     C19      CTL3    -0.270000       12.0110           0
     15244 MEMB     133      CHL1     H19A     HAL3     0.900000E-01   1.00800           0
     15245 MEMB     133      CHL1     H19B     HAL3     0.900000E-01   1.00800           0
     15246 MEMB     133      CHL1     H19C     HAL3     0.900000E-01   1.00800           0
     15247 MEMB     133      CHL1     C1       CRL2    -0.180000       12.0110           0
     15248 MEMB     133      CHL1     H1A      HGA2     0.900000E-01   1.00800           0
     15249 MEMB     133      CHL1     H1B      HGA2     0.900000E-01   1.00800           0
     15250 MEMB     133      CHL1     C2       CRL2    -0.180000       12.0110           0
     15251 MEMB     133      CHL1     H2A      HGA2     0.900000E-01   1.00800           0
     15252 MEMB     133      CHL1     H2B      HGA2     0.900000E-01   1.00800           0
     15253 MEMB     133      CHL1     C20      CTL1    -0.900000E-01   12.0110           0
     15254 MEMB     133      CHL1     H20      HAL1     0.900000E-01   1.00800           0
     15255 MEMB     133      CHL1     C21      CTL3    -0.270000       12.0110           0
     15256 MEMB     133      CHL1     H21A     HAL3     0.900000E-01   1.00800           0
     15257 MEMB     133      CHL1     H21B     HAL3     0.900000E-01   1.00800           0
     15258 MEMB     133      CHL1     H21C     HAL3     0.900000E-01   1.00800           0
     15259 MEMB     133      CHL1     C22      CTL2    -0.180000       12.0110           0
     15260 MEMB     133      CHL1     H22A     HAL2     0.900000E-01   1.00800           0
     15261 MEMB     133      CHL1     H22B     HAL2     0.900000E-01   1.00800           0
     15262 MEMB     133      CHL1     C23      CTL2    -0.180000       12.0110           0
     15263 MEMB     133      CHL1     H23A     HAL2     0.900000E-01   1.00800           0
     15264 MEMB     133      CHL1     H23B     HAL2     0.900000E-01   1.00800           0
     15265 MEMB     133      CHL1     C24      CTL2    -0.180000       12.0110           0
     15266 MEMB     133      CHL1     H24A     HAL2     0.900000E-01   1.00800           0
     15267 MEMB     133      CHL1     H24B     HAL2     0.900000E-01   1.00800           0
     15268 MEMB     133      CHL1     C25      CTL1    -0.900000E-01   12.0110           0
     15269 MEMB     133      CHL1     H25      HAL1     0.900000E-01   1.00800           0
     15270 MEMB     133      CHL1     C26      CTL3    -0.270000       12.0110           0
     15271 MEMB     133      CHL1     H26A     HAL3     0.900000E-01   1.00800           0
     15272 MEMB     133      CHL1     H26B     HAL3     0.900000E-01   1.00800           0
     15273 MEMB     133      CHL1     H26C     HAL3     0.900000E-01   1.00800           0
     15274 MEMB     133      CHL1     C27      CTL3    -0.270000       12.0110           0
     15275 MEMB     133      CHL1     H27A     HAL3     0.900000E-01   1.00800           0
     15276 MEMB     133      CHL1     H27B     HAL3     0.900000E-01   1.00800           0
     15277 MEMB     133      CHL1     H27C     HAL3     0.900000E-01   1.00800           0
     15278 MEMB     134      SAPS     N        NH3L    -0.300000       14.0070           0
     15279 MEMB     134      SAPS     HN1      HCL      0.330000       1.00800           0
     15280 MEMB     134      SAPS     HN2      HCL      0.330000       1.00800           0
     15281 MEMB     134      SAPS     HN3      HCL      0.330000       1.00800           0
     15282 MEMB     134      SAPS     C12      CTL1     0.210000       12.0110           0
     15283 MEMB     134      SAPS     H12A     HBL      0.100000       1.00800           0
     15284 MEMB     134      SAPS     C13      CCL      0.340000       12.0110           0
     15285 MEMB     134      SAPS     O13A     OCL     -0.670000       15.9994           0
     15286 MEMB     134      SAPS     O13B     OCL     -0.670000       15.9994           0
     15287 MEMB     134      SAPS     C11      CTL2    -0.800000E-01   12.0110           0
     15288 MEMB     134      SAPS     H11A     HAL2     0.900000E-01   1.00800           0
     15289 MEMB     134      SAPS     H11B     HAL2     0.900000E-01   1.00800           0
     15290 MEMB     134      SAPS     P        PL        1.50000       30.9740           0
     15291 MEMB     134      SAPS     O13      O2L     -0.780000       15.9994           0
     15292 MEMB     134      SAPS     O14      O2L     -0.780000       15.9994           0
     15293 MEMB     134      SAPS     O12      OSLP    -0.570000       15.9994           0
     15294 MEMB     134      SAPS     O11      OSLP    -0.570000       15.9994           0
     15295 MEMB     134      SAPS     C1       CTL2    -0.800000E-01   12.0110           0
     15296 MEMB     134      SAPS     HA       HAL2     0.900000E-01   1.00800           0
     15297 MEMB     134      SAPS     HB       HAL2     0.900000E-01   1.00800           0
     15298 MEMB     134      SAPS     C2       CTL1     0.170000       12.0110           0
     15299 MEMB     134      SAPS     HS       HAL1     0.900000E-01   1.00800           0
     15300 MEMB     134      SAPS     O21      OSL     -0.490000       15.9994           0
     15301 MEMB     134      SAPS     C21      CL       0.900000       12.0110           0
     15302 MEMB     134      SAPS     O22      OBL     -0.630000       15.9994           0
     15303 MEMB     134      SAPS     C22      CTL2    -0.220000       12.0110           0
     15304 MEMB     134      SAPS     H2R      HAL2     0.900000E-01   1.00800           0
     15305 MEMB     134      SAPS     H2S      HAL2     0.900000E-01   1.00800           0
     15306 MEMB     134      SAPS     C3       CTL2     0.800000E-01   12.0110           0
     15307 MEMB     134      SAPS     HX       HAL2     0.900000E-01   1.00800           0
     15308 MEMB     134      SAPS     HY       HAL2     0.900000E-01   1.00800           0
     15309 MEMB     134      SAPS     O31      OSL     -0.490000       15.9994           0
     15310 MEMB     134      SAPS     C31      CL       0.900000       12.0110           0
     15311 MEMB     134      SAPS     O32      OBL     -0.630000       15.9994           0
     15312 MEMB     134      SAPS     C32      CTL2    -0.220000       12.0110           0
     15313 MEMB     134      SAPS     H2X      HAL2     0.900000E-01   1.00800           0
     15314 MEMB     134      SAPS     H2Y      HAL2     0.900000E-01   1.00800           0
     15315 MEMB     134      SAPS     C23      CTL2    -0.180000       12.0110           0
     15316 MEMB     134      SAPS     H3R      HAL2     0.900000E-01   1.00800           0
     15317 MEMB     134      SAPS     H3S      HAL2     0.900000E-01   1.00800           0
     15318 MEMB     134      SAPS     C24      CTL2    -0.180000       12.0110           0
     15319 MEMB     134      SAPS     H4R      HAL2     0.900000E-01   1.00800           0
     15320 MEMB     134      SAPS     H4S      HAL2     0.900000E-01   1.00800           0
     15321 MEMB     134      SAPS     C25      CEL1    -0.150000       12.0110           0
     15322 MEMB     134      SAPS     H5R      HEL1     0.150000       1.00800           0
     15323 MEMB     134      SAPS     C26      CEL1    -0.150000       12.0110           0
     15324 MEMB     134      SAPS     H6R      HEL1     0.150000       1.00800           0
     15325 MEMB     134      SAPS     C27      CTL2    -0.180000       12.0110           0
     15326 MEMB     134      SAPS     H7R      HAL2     0.900000E-01   1.00800           0
     15327 MEMB     134      SAPS     H7S      HAL2     0.900000E-01   1.00800           0
     15328 MEMB     134      SAPS     C28      CEL1    -0.150000       12.0110           0
     15329 MEMB     134      SAPS     H8R      HEL1     0.150000       1.00800           0
     15330 MEMB     134      SAPS     C29      CEL1    -0.150000       12.0110           0
     15331 MEMB     134      SAPS     H9R      HEL1     0.150000       1.00800           0
     15332 MEMB     134      SAPS     C210     CTL2    -0.180000       12.0110           0
     15333 MEMB     134      SAPS     H10R     HAL2     0.900000E-01   1.00800           0
     15334 MEMB     134      SAPS     H10S     HAL2     0.900000E-01   1.00800           0
     15335 MEMB     134      SAPS     C211     CEL1    -0.150000       12.0110           0
     15336 MEMB     134      SAPS     H11R     HEL1     0.150000       1.00800           0
     15337 MEMB     134      SAPS     C212     CEL1    -0.150000       12.0110           0
     15338 MEMB     134      SAPS     H12R     HEL1     0.150000       1.00800           0
     15339 MEMB     134      SAPS     C213     CTL2    -0.180000       12.0110           0
     15340 MEMB     134      SAPS     H13R     HAL2     0.900000E-01   1.00800           0
     15341 MEMB     134      SAPS     H13S     HAL2     0.900000E-01   1.00800           0
     15342 MEMB     134      SAPS     C214     CEL1    -0.150000       12.0110           0
     15343 MEMB     134      SAPS     H14R     HEL1     0.150000       1.00800           0
     15344 MEMB     134      SAPS     C215     CEL1    -0.150000       12.0110           0
     15345 MEMB     134      SAPS     H15R     HEL1     0.150000       1.00800           0
     15346 MEMB     134      SAPS     C216     CTL2    -0.180000       12.0110           0
     15347 MEMB     134      SAPS     H16R     HAL2     0.900000E-01   1.00800           0
     15348 MEMB     134      SAPS     H16S     HAL2     0.900000E-01   1.00800           0
     15349 MEMB     134      SAPS     C217     CTL2    -0.180000       12.0110           0
     15350 MEMB     134      SAPS     H17R     HAL2     0.900000E-01   1.00800           0
     15351 MEMB     134      SAPS     H17S     HAL2     0.900000E-01   1.00800           0
     15352 MEMB     134      SAPS     C218     CTL2    -0.180000       12.0110           0
     15353 MEMB     134      SAPS     H18R     HAL2     0.900000E-01   1.00800           0
     15354 MEMB     134      SAPS     H18S     HAL2     0.900000E-01   1.00800           0
     15355 MEMB     134      SAPS     C219     CTL2    -0.180000       12.0110           0
     15356 MEMB     134      SAPS     H19R     HAL2     0.900000E-01   1.00800           0
     15357 MEMB     134      SAPS     H19S     HAL2     0.900000E-01   1.00800           0
     15358 MEMB     134      SAPS     C220     CTL3    -0.270000       12.0110           0
     15359 MEMB     134      SAPS     H20R     HAL3     0.900000E-01   1.00800           0
     15360 MEMB     134      SAPS     H20S     HAL3     0.900000E-01   1.00800           0
     15361 MEMB     134      SAPS     H20T     HAL3     0.900000E-01   1.00800           0
     15362 MEMB     134      SAPS     C33      CTL2    -0.180000       12.0110           0
     15363 MEMB     134      SAPS     H3X      HAL2     0.900000E-01   1.00800           0
     15364 MEMB     134      SAPS     H3Y      HAL2     0.900000E-01   1.00800           0
     15365 MEMB     134      SAPS     C34      CTL2    -0.180000       12.0110           0
     15366 MEMB     134      SAPS     H4X      HAL2     0.900000E-01   1.00800           0
     15367 MEMB     134      SAPS     H4Y      HAL2     0.900000E-01   1.00800           0
     15368 MEMB     134      SAPS     C35      CTL2    -0.180000       12.0110           0
     15369 MEMB     134      SAPS     H5X      HAL2     0.900000E-01   1.00800           0
     15370 MEMB     134      SAPS     H5Y      HAL2     0.900000E-01   1.00800           0
     15371 MEMB     134      SAPS     C36      CTL2    -0.180000       12.0110           0
     15372 MEMB     134      SAPS     H6X      HAL2     0.900000E-01   1.00800           0
     15373 MEMB     134      SAPS     H6Y      HAL2     0.900000E-01   1.00800           0
     15374 MEMB     134      SAPS     C37      CTL2    -0.180000       12.0110           0
     15375 MEMB     134      SAPS     H7X      HAL2     0.900000E-01   1.00800           0
     15376 MEMB     134      SAPS     H7Y      HAL2     0.900000E-01   1.00800           0
     15377 MEMB     134      SAPS     C38      CTL2    -0.180000       12.0110           0
     15378 MEMB     134      SAPS     H8X      HAL2     0.900000E-01   1.00800           0
     15379 MEMB     134      SAPS     H8Y      HAL2     0.900000E-01   1.00800           0
     15380 MEMB     134      SAPS     C39      CTL2    -0.180000       12.0110           0
     15381 MEMB     134      SAPS     H9X      HAL2     0.900000E-01   1.00800           0
     15382 MEMB     134      SAPS     H9Y      HAL2     0.900000E-01   1.00800           0
     15383 MEMB     134      SAPS     C310     CTL2    -0.180000       12.0110           0
     15384 MEMB     134      SAPS     H10X     HAL2     0.900000E-01   1.00800           0
     15385 MEMB     134      SAPS     H10Y     HAL2     0.900000E-01   1.00800           0
     15386 MEMB     134      SAPS     C311     CTL2    -0.180000       12.0110           0
     15387 MEMB     134      SAPS     H11X     HAL2     0.900000E-01   1.00800           0
     15388 MEMB     134      SAPS     H11Y     HAL2     0.900000E-01   1.00800           0
     15389 MEMB     134      SAPS     C312     CTL2    -0.180000       12.0110           0
     15390 MEMB     134      SAPS     H12X     HAL2     0.900000E-01   1.00800           0
     15391 MEMB     134      SAPS     H12Y     HAL2     0.900000E-01   1.00800           0
     15392 MEMB     134      SAPS     C313     CTL2    -0.180000       12.0110           0
     15393 MEMB     134      SAPS     H13X     HAL2     0.900000E-01   1.00800           0
     15394 MEMB     134      SAPS     H13Y     HAL2     0.900000E-01   1.00800           0
     15395 MEMB     134      SAPS     C314     CTL2    -0.180000       12.0110           0
     15396 MEMB     134      SAPS     H14X     HAL2     0.900000E-01   1.00800           0
     15397 MEMB     134      SAPS     H14Y     HAL2     0.900000E-01   1.00800           0
     15398 MEMB     134      SAPS     C315     CTL2    -0.180000       12.0110           0
     15399 MEMB     134      SAPS     H15X     HAL2     0.900000E-01   1.00800           0
     15400 MEMB     134      SAPS     H15Y     HAL2     0.900000E-01   1.00800           0
     15401 MEMB     134      SAPS     C316     CTL2    -0.180000       12.0110           0
     15402 MEMB     134      SAPS     H16X     HAL2     0.900000E-01   1.00800           0
     15403 MEMB     134      SAPS     H16Y     HAL2     0.900000E-01   1.00800           0
     15404 MEMB     134      SAPS     C317     CTL2    -0.180000       12.0110           0
     15405 MEMB     134      SAPS     H17X     HAL2     0.900000E-01   1.00800           0
     15406 MEMB     134      SAPS     H17Y     HAL2     0.900000E-01   1.00800           0
     15407 MEMB     134      SAPS     C318     CTL3    -0.270000       12.0110           0
     15408 MEMB     134      SAPS     H18X     HAL3     0.900000E-01   1.00800           0
     15409 MEMB     134      SAPS     H18Y     HAL3     0.900000E-01   1.00800           0
     15410 MEMB     134      SAPS     H18Z     HAL3     0.900000E-01   1.00800           0
     15411 MEMB     135      SOPE     N        NH3L    -0.300000       14.0070           0
     15412 MEMB     135      SOPE     HN1      HCL      0.330000       1.00800           0
     15413 MEMB     135      SOPE     HN2      HCL      0.330000       1.00800           0
     15414 MEMB     135      SOPE     HN3      HCL      0.330000       1.00800           0
     15415 MEMB     135      SOPE     C12      CTL2     0.130000       12.0110           0
     15416 MEMB     135      SOPE     H12A     HAL2     0.900000E-01   1.00800           0
     15417 MEMB     135      SOPE     H12B     HAL2     0.900000E-01   1.00800           0
     15418 MEMB     135      SOPE     C11      CTL2    -0.800000E-01   12.0110           0
     15419 MEMB     135      SOPE     H11A     HAL2     0.900000E-01   1.00800           0
     15420 MEMB     135      SOPE     H11B     HAL2     0.900000E-01   1.00800           0
     15421 MEMB     135      SOPE     P        PL        1.50000       30.9740           0
     15422 MEMB     135      SOPE     O13      O2L     -0.780000       15.9994           0
     15423 MEMB     135      SOPE     O14      O2L     -0.780000       15.9994           0
     15424 MEMB     135      SOPE     O12      OSLP    -0.570000       15.9994           0
     15425 MEMB     135      SOPE     O11      OSLP    -0.570000       15.9994           0
     15426 MEMB     135      SOPE     C1       CTL2    -0.800000E-01   12.0110           0
     15427 MEMB     135      SOPE     HA       HAL2     0.900000E-01   1.00800           0
     15428 MEMB     135      SOPE     HB       HAL2     0.900000E-01   1.00800           0
     15429 MEMB     135      SOPE     C2       CTL1     0.170000       12.0110           0
     15430 MEMB     135      SOPE     HS       HAL1     0.900000E-01   1.00800           0
     15431 MEMB     135      SOPE     O21      OSL     -0.490000       15.9994           0
     15432 MEMB     135      SOPE     C21      CL       0.900000       12.0110           0
     15433 MEMB     135      SOPE     O22      OBL     -0.630000       15.9994           0
     15434 MEMB     135      SOPE     C22      CTL2    -0.220000       12.0110           0
     15435 MEMB     135      SOPE     H2R      HAL2     0.900000E-01   1.00800           0
     15436 MEMB     135      SOPE     H2S      HAL2     0.900000E-01   1.00800           0
     15437 MEMB     135      SOPE     C3       CTL2     0.800000E-01   12.0110           0
     15438 MEMB     135      SOPE     HX       HAL2     0.900000E-01   1.00800           0
     15439 MEMB     135      SOPE     HY       HAL2     0.900000E-01   1.00800           0
     15440 MEMB     135      SOPE     O31      OSL     -0.490000       15.9994           0
     15441 MEMB     135      SOPE     C31      CL       0.900000       12.0110           0
     15442 MEMB     135      SOPE     O32      OBL     -0.630000       15.9994           0
     15443 MEMB     135      SOPE     C32      CTL2    -0.220000       12.0110           0
     15444 MEMB     135      SOPE     H2X      HAL2     0.900000E-01   1.00800           0
     15445 MEMB     135      SOPE     H2Y      HAL2     0.900000E-01   1.00800           0
     15446 MEMB     135      SOPE     C23      CTL2    -0.180000       12.0110           0
     15447 MEMB     135      SOPE     H3R      HAL2     0.900000E-01   1.00800           0
     15448 MEMB     135      SOPE     H3S      HAL2     0.900000E-01   1.00800           0
     15449 MEMB     135      SOPE     C24      CTL2    -0.180000       12.0110           0
     15450 MEMB     135      SOPE     H4R      HAL2     0.900000E-01   1.00800           0
     15451 MEMB     135      SOPE     H4S      HAL2     0.900000E-01   1.00800           0
     15452 MEMB     135      SOPE     C25      CTL2    -0.180000       12.0110           0
     15453 MEMB     135      SOPE     H5R      HAL2     0.900000E-01   1.00800           0
     15454 MEMB     135      SOPE     H5S      HAL2     0.900000E-01   1.00800           0
     15455 MEMB     135      SOPE     C26      CTL2    -0.180000       12.0110           0
     15456 MEMB     135      SOPE     H6R      HAL2     0.900000E-01   1.00800           0
     15457 MEMB     135      SOPE     H6S      HAL2     0.900000E-01   1.00800           0
     15458 MEMB     135      SOPE     C27      CTL2    -0.180000       12.0110           0
     15459 MEMB     135      SOPE     H7R      HAL2     0.900000E-01   1.00800           0
     15460 MEMB     135      SOPE     H7S      HAL2     0.900000E-01   1.00800           0
     15461 MEMB     135      SOPE     C28      CTL2    -0.180000       12.0110           0
     15462 MEMB     135      SOPE     H8R      HAL2     0.900000E-01   1.00800           0
     15463 MEMB     135      SOPE     H8S      HAL2     0.900000E-01   1.00800           0
     15464 MEMB     135      SOPE     C29      CEL1    -0.150000       12.0110           0
     15465 MEMB     135      SOPE     H91      HEL1     0.150000       1.00800           0
     15466 MEMB     135      SOPE     C210     CEL1    -0.150000       12.0110           0
     15467 MEMB     135      SOPE     H101     HEL1     0.150000       1.00800           0
     15468 MEMB     135      SOPE     C211     CTL2    -0.180000       12.0110           0
     15469 MEMB     135      SOPE     H11R     HAL2     0.900000E-01   1.00800           0
     15470 MEMB     135      SOPE     H11S     HAL2     0.900000E-01   1.00800           0
     15471 MEMB     135      SOPE     C212     CTL2    -0.180000       12.0110           0
     15472 MEMB     135      SOPE     H12R     HAL2     0.900000E-01   1.00800           0
     15473 MEMB     135      SOPE     H12S     HAL2     0.900000E-01   1.00800           0
     15474 MEMB     135      SOPE     C213     CTL2    -0.180000       12.0110           0
     15475 MEMB     135      SOPE     H13R     HAL2     0.900000E-01   1.00800           0
     15476 MEMB     135      SOPE     H13S     HAL2     0.900000E-01   1.00800           0
     15477 MEMB     135      SOPE     C214     CTL2    -0.180000       12.0110           0
     15478 MEMB     135      SOPE     H14R     HAL2     0.900000E-01   1.00800           0
     15479 MEMB     135      SOPE     H14S     HAL2     0.900000E-01   1.00800           0
     15480 MEMB     135      SOPE     C215     CTL2    -0.180000       12.0110           0
     15481 MEMB     135      SOPE     H15R     HAL2     0.900000E-01   1.00800           0
     15482 MEMB     135      SOPE     H15S     HAL2     0.900000E-01   1.00800           0
     15483 MEMB     135      SOPE     C216     CTL2    -0.180000       12.0110           0
     15484 MEMB     135      SOPE     H16R     HAL2     0.900000E-01   1.00800           0
     15485 MEMB     135      SOPE     H16S     HAL2     0.900000E-01   1.00800           0
     15486 MEMB     135      SOPE     C217     CTL2    -0.180000       12.0110           0
     15487 MEMB     135      SOPE     H17R     HAL2     0.900000E-01   1.00800           0
     15488 MEMB     135      SOPE     H17S     HAL2     0.900000E-01   1.00800           0
     15489 MEMB     135      SOPE     C218     CTL3    -0.270000       12.0110           0
     15490 MEMB     135      SOPE     H18R     HAL3     0.900000E-01   1.00800           0
     15491 MEMB     135      SOPE     H18S     HAL3     0.900000E-01   1.00800           0
     15492 MEMB     135      SOPE     H18T     HAL3     0.900000E-01   1.00800           0
     15493 MEMB     135      SOPE     C33      CTL2    -0.180000       12.0110           0
     15494 MEMB     135      SOPE     H3X      HAL2     0.900000E-01   1.00800           0
     15495 MEMB     135      SOPE     H3Y      HAL2     0.900000E-01   1.00800           0
     15496 MEMB     135      SOPE     C34      CTL2    -0.180000       12.0110           0
     15497 MEMB     135      SOPE     H4X      HAL2     0.900000E-01   1.00800           0
     15498 MEMB     135      SOPE     H4Y      HAL2     0.900000E-01   1.00800           0
     15499 MEMB     135      SOPE     C35      CTL2    -0.180000       12.0110           0
     15500 MEMB     135      SOPE     H5X      HAL2     0.900000E-01   1.00800           0
     15501 MEMB     135      SOPE     H5Y      HAL2     0.900000E-01   1.00800           0
     15502 MEMB     135      SOPE     C36      CTL2    -0.180000       12.0110           0
     15503 MEMB     135      SOPE     H6X      HAL2     0.900000E-01   1.00800           0
     15504 MEMB     135      SOPE     H6Y      HAL2     0.900000E-01   1.00800           0
     15505 MEMB     135      SOPE     C37      CTL2    -0.180000       12.0110           0
     15506 MEMB     135      SOPE     H7X      HAL2     0.900000E-01   1.00800           0
     15507 MEMB     135      SOPE     H7Y      HAL2     0.900000E-01   1.00800           0
     15508 MEMB     135      SOPE     C38      CTL2    -0.180000       12.0110           0
     15509 MEMB     135      SOPE     H8X      HAL2     0.900000E-01   1.00800           0
     15510 MEMB     135      SOPE     H8Y      HAL2     0.900000E-01   1.00800           0
     15511 MEMB     135      SOPE     C39      CTL2    -0.180000       12.0110           0
     15512 MEMB     135      SOPE     H9X      HAL2     0.900000E-01   1.00800           0
     15513 MEMB     135      SOPE     H9Y      HAL2     0.900000E-01   1.00800           0
     15514 MEMB     135      SOPE     C310     CTL2    -0.180000       12.0110           0
     15515 MEMB     135      SOPE     H10X     HAL2     0.900000E-01   1.00800           0
     15516 MEMB     135      SOPE     H10Y     HAL2     0.900000E-01   1.00800           0
     15517 MEMB     135      SOPE     C311     CTL2    -0.180000       12.0110           0
     15518 MEMB     135      SOPE     H11X     HAL2     0.900000E-01   1.00800           0
     15519 MEMB     135      SOPE     H11Y     HAL2     0.900000E-01   1.00800           0
     15520 MEMB     135      SOPE     C312     CTL2    -0.180000       12.0110           0
     15521 MEMB     135      SOPE     H12X     HAL2     0.900000E-01   1.00800           0
     15522 MEMB     135      SOPE     H12Y     HAL2     0.900000E-01   1.00800           0
     15523 MEMB     135      SOPE     C313     CTL2    -0.180000       12.0110           0
     15524 MEMB     135      SOPE     H13X     HAL2     0.900000E-01   1.00800           0
     15525 MEMB     135      SOPE     H13Y     HAL2     0.900000E-01   1.00800           0
     15526 MEMB     135      SOPE     C314     CTL2    -0.180000       12.0110           0
     15527 MEMB     135      SOPE     H14X     HAL2     0.900000E-01   1.00800           0
     15528 MEMB     135      SOPE     H14Y     HAL2     0.900000E-01   1.00800           0
     15529 MEMB     135      SOPE     C315     CTL2    -0.180000       12.0110           0
     15530 MEMB     135      SOPE     H15X     HAL2     0.900000E-01   1.00800           0
     15531 MEMB     135      SOPE     H15Y     HAL2     0.900000E-01   1.00800           0
     15532 MEMB     135      SOPE     C316     CTL2    -0.180000       12.0110           0
     15533 MEMB     135      SOPE     H16X     HAL2     0.900000E-01   1.00800           0
     15534 MEMB     135      SOPE     H16Y     HAL2     0.900000E-01   1.00800           0
     15535 MEMB     135      SOPE     C317     CTL2    -0.180000       12.0110           0
     15536 MEMB     135      SOPE     H17X     HAL2     0.900000E-01   1.00800           0
     15537 MEMB     135      SOPE     H17Y     HAL2     0.900000E-01   1.00800           0
     15538 MEMB     135      SOPE     C318     CTL3    -0.270000       12.0110           0
     15539 MEMB     135      SOPE     H18X     HAL3     0.900000E-01   1.00800           0
     15540 MEMB     135      SOPE     H18Y     HAL3     0.900000E-01   1.00800           0
     15541 MEMB     135      SOPE     H18Z     HAL3     0.900000E-01   1.00800           0
     15542 MEMB     136      CHL1     C3       CRL1     0.140000       12.0110           0
     15543 MEMB     136      CHL1     H3       HGA1     0.900000E-01   1.00800           0
     15544 MEMB     136      CHL1     O3       OHL     -0.660000       15.9994           0
     15545 MEMB     136      CHL1     H3'      HOL      0.430000       1.00800           0
     15546 MEMB     136      CHL1     C4       CRL2    -0.180000       12.0110           0
     15547 MEMB     136      CHL1     H4A      HGA2     0.900000E-01   1.00800           0
     15548 MEMB     136      CHL1     H4B      HGA2     0.900000E-01   1.00800           0
     15549 MEMB     136      CHL1     C5       CEL1      0.00000       12.0110           0
     15550 MEMB     136      CHL1     C6       CEL1    -0.150000       12.0110           0
     15551 MEMB     136      CHL1     H6       HEL1     0.150000       1.00800           0
     15552 MEMB     136      CHL1     C7       CRL2    -0.180000       12.0110           0
     15553 MEMB     136      CHL1     H7A      HGA2     0.900000E-01   1.00800           0
     15554 MEMB     136      CHL1     H7B      HGA2     0.900000E-01   1.00800           0
     15555 MEMB     136      CHL1     C8       CRL1    -0.900000E-01   12.0110           0
     15556 MEMB     136      CHL1     H8       HGA1     0.900000E-01   1.00800           0
     15557 MEMB     136      CHL1     C14      CRL1    -0.900000E-01   12.0110           0
     15558 MEMB     136      CHL1     H14      HGA1     0.900000E-01   1.00800           0
     15559 MEMB     136      CHL1     C15      CRL2    -0.180000       12.0110           0
     15560 MEMB     136      CHL1     H15A     HGA2     0.900000E-01   1.00800           0
     15561 MEMB     136      CHL1     H15B     HGA2     0.900000E-01   1.00800           0
     15562 MEMB     136      CHL1     C16      CRL2    -0.180000       12.0110           0
     15563 MEMB     136      CHL1     H16A     HGA2     0.900000E-01   1.00800           0
     15564 MEMB     136      CHL1     H16B     HGA2     0.900000E-01   1.00800           0
     15565 MEMB     136      CHL1     C17      CRL1    -0.900000E-01   12.0110           0
     15566 MEMB     136      CHL1     H17      HGA1     0.900000E-01   1.00800           0
     15567 MEMB     136      CHL1     C13      CRL1      0.00000       12.0110           0
     15568 MEMB     136      CHL1     C18      CTL3    -0.270000       12.0110           0
     15569 MEMB     136      CHL1     H18A     HAL3     0.900000E-01   1.00800           0
     15570 MEMB     136      CHL1     H18B     HAL3     0.900000E-01   1.00800           0
     15571 MEMB     136      CHL1     H18C     HAL3     0.900000E-01   1.00800           0
     15572 MEMB     136      CHL1     C12      CRL2    -0.180000       12.0110           0
     15573 MEMB     136      CHL1     H12A     HGA2     0.900000E-01   1.00800           0
     15574 MEMB     136      CHL1     H12B     HGA2     0.900000E-01   1.00800           0
     15575 MEMB     136      CHL1     C11      CRL2    -0.180000       12.0110           0
     15576 MEMB     136      CHL1     H11A     HGA2     0.900000E-01   1.00800           0
     15577 MEMB     136      CHL1     H11B     HGA2     0.900000E-01   1.00800           0
     15578 MEMB     136      CHL1     C9       CRL1    -0.900000E-01   12.0110           0
     15579 MEMB     136      CHL1     H9       HGA1     0.900000E-01   1.00800           0
     15580 MEMB     136      CHL1     C10      CRL1      0.00000       12.0110           0
     15581 MEMB     136      CHL1     C19      CTL3    -0.270000       12.0110           0
     15582 MEMB     136      CHL1     H19A     HAL3     0.900000E-01   1.00800           0
     15583 MEMB     136      CHL1     H19B     HAL3     0.900000E-01   1.00800           0
     15584 MEMB     136      CHL1     H19C     HAL3     0.900000E-01   1.00800           0
     15585 MEMB     136      CHL1     C1       CRL2    -0.180000       12.0110           0
     15586 MEMB     136      CHL1     H1A      HGA2     0.900000E-01   1.00800           0
     15587 MEMB     136      CHL1     H1B      HGA2     0.900000E-01   1.00800           0
     15588 MEMB     136      CHL1     C2       CRL2    -0.180000       12.0110           0
     15589 MEMB     136      CHL1     H2A      HGA2     0.900000E-01   1.00800           0
     15590 MEMB     136      CHL1     H2B      HGA2     0.900000E-01   1.00800           0
     15591 MEMB     136      CHL1     C20      CTL1    -0.900000E-01   12.0110           0
     15592 MEMB     136      CHL1     H20      HAL1     0.900000E-01   1.00800           0
     15593 MEMB     136      CHL1     C21      CTL3    -0.270000       12.0110           0
     15594 MEMB     136      CHL1     H21A     HAL3     0.900000E-01   1.00800           0
     15595 MEMB     136      CHL1     H21B     HAL3     0.900000E-01   1.00800           0
     15596 MEMB     136      CHL1     H21C     HAL3     0.900000E-01   1.00800           0
     15597 MEMB     136      CHL1     C22      CTL2    -0.180000       12.0110           0
     15598 MEMB     136      CHL1     H22A     HAL2     0.900000E-01   1.00800           0
     15599 MEMB     136      CHL1     H22B     HAL2     0.900000E-01   1.00800           0
     15600 MEMB     136      CHL1     C23      CTL2    -0.180000       12.0110           0
     15601 MEMB     136      CHL1     H23A     HAL2     0.900000E-01   1.00800           0
     15602 MEMB     136      CHL1     H23B     HAL2     0.900000E-01   1.00800           0
     15603 MEMB     136      CHL1     C24      CTL2    -0.180000       12.0110           0
     15604 MEMB     136      CHL1     H24A     HAL2     0.900000E-01   1.00800           0
     15605 MEMB     136      CHL1     H24B     HAL2     0.900000E-01   1.00800           0
     15606 MEMB     136      CHL1     C25      CTL1    -0.900000E-01   12.0110           0
     15607 MEMB     136      CHL1     H25      HAL1     0.900000E-01   1.00800           0
     15608 MEMB     136      CHL1     C26      CTL3    -0.270000       12.0110           0
     15609 MEMB     136      CHL1     H26A     HAL3     0.900000E-01   1.00800           0
     15610 MEMB     136      CHL1     H26B     HAL3     0.900000E-01   1.00800           0
     15611 MEMB     136      CHL1     H26C     HAL3     0.900000E-01   1.00800           0
     15612 MEMB     136      CHL1     C27      CTL3    -0.270000       12.0110           0
     15613 MEMB     136      CHL1     H27A     HAL3     0.900000E-01   1.00800           0
     15614 MEMB     136      CHL1     H27B     HAL3     0.900000E-01   1.00800           0
     15615 MEMB     136      CHL1     H27C     HAL3     0.900000E-01   1.00800           0
     15616 MEMB     137      CHL1     C3       CRL1     0.140000       12.0110           0
     15617 MEMB     137      CHL1     H3       HGA1     0.900000E-01   1.00800           0
     15618 MEMB     137      CHL1     O3       OHL     -0.660000       15.9994           0
     15619 MEMB     137      CHL1     H3'      HOL      0.430000       1.00800           0
     15620 MEMB     137      CHL1     C4       CRL2    -0.180000       12.0110           0
     15621 MEMB     137      CHL1     H4A      HGA2     0.900000E-01   1.00800           0
     15622 MEMB     137      CHL1     H4B      HGA2     0.900000E-01   1.00800           0
     15623 MEMB     137      CHL1     C5       CEL1      0.00000       12.0110           0
     15624 MEMB     137      CHL1     C6       CEL1    -0.150000       12.0110           0
     15625 MEMB     137      CHL1     H6       HEL1     0.150000       1.00800           0
     15626 MEMB     137      CHL1     C7       CRL2    -0.180000       12.0110           0
     15627 MEMB     137      CHL1     H7A      HGA2     0.900000E-01   1.00800           0
     15628 MEMB     137      CHL1     H7B      HGA2     0.900000E-01   1.00800           0
     15629 MEMB     137      CHL1     C8       CRL1    -0.900000E-01   12.0110           0
     15630 MEMB     137      CHL1     H8       HGA1     0.900000E-01   1.00800           0
     15631 MEMB     137      CHL1     C14      CRL1    -0.900000E-01   12.0110           0
     15632 MEMB     137      CHL1     H14      HGA1     0.900000E-01   1.00800           0
     15633 MEMB     137      CHL1     C15      CRL2    -0.180000       12.0110           0
     15634 MEMB     137      CHL1     H15A     HGA2     0.900000E-01   1.00800           0
     15635 MEMB     137      CHL1     H15B     HGA2     0.900000E-01   1.00800           0
     15636 MEMB     137      CHL1     C16      CRL2    -0.180000       12.0110           0
     15637 MEMB     137      CHL1     H16A     HGA2     0.900000E-01   1.00800           0
     15638 MEMB     137      CHL1     H16B     HGA2     0.900000E-01   1.00800           0
     15639 MEMB     137      CHL1     C17      CRL1    -0.900000E-01   12.0110           0
     15640 MEMB     137      CHL1     H17      HGA1     0.900000E-01   1.00800           0
     15641 MEMB     137      CHL1     C13      CRL1      0.00000       12.0110           0
     15642 MEMB     137      CHL1     C18      CTL3    -0.270000       12.0110           0
     15643 MEMB     137      CHL1     H18A     HAL3     0.900000E-01   1.00800           0
     15644 MEMB     137      CHL1     H18B     HAL3     0.900000E-01   1.00800           0
     15645 MEMB     137      CHL1     H18C     HAL3     0.900000E-01   1.00800           0
     15646 MEMB     137      CHL1     C12      CRL2    -0.180000       12.0110           0
     15647 MEMB     137      CHL1     H12A     HGA2     0.900000E-01   1.00800           0
     15648 MEMB     137      CHL1     H12B     HGA2     0.900000E-01   1.00800           0
     15649 MEMB     137      CHL1     C11      CRL2    -0.180000       12.0110           0
     15650 MEMB     137      CHL1     H11A     HGA2     0.900000E-01   1.00800           0
     15651 MEMB     137      CHL1     H11B     HGA2     0.900000E-01   1.00800           0
     15652 MEMB     137      CHL1     C9       CRL1    -0.900000E-01   12.0110           0
     15653 MEMB     137      CHL1     H9       HGA1     0.900000E-01   1.00800           0
     15654 MEMB     137      CHL1     C10      CRL1      0.00000       12.0110           0
     15655 MEMB     137      CHL1     C19      CTL3    -0.270000       12.0110           0
     15656 MEMB     137      CHL1     H19A     HAL3     0.900000E-01   1.00800           0
     15657 MEMB     137      CHL1     H19B     HAL3     0.900000E-01   1.00800           0
     15658 MEMB     137      CHL1     H19C     HAL3     0.900000E-01   1.00800           0
     15659 MEMB     137      CHL1     C1       CRL2    -0.180000       12.0110           0
     15660 MEMB     137      CHL1     H1A      HGA2     0.900000E-01   1.00800           0
     15661 MEMB     137      CHL1     H1B      HGA2     0.900000E-01   1.00800           0
     15662 MEMB     137      CHL1     C2       CRL2    -0.180000       12.0110           0
     15663 MEMB     137      CHL1     H2A      HGA2     0.900000E-01   1.00800           0
     15664 MEMB     137      CHL1     H2B      HGA2     0.900000E-01   1.00800           0
     15665 MEMB     137      CHL1     C20      CTL1    -0.900000E-01   12.0110           0
     15666 MEMB     137      CHL1     H20      HAL1     0.900000E-01   1.00800           0
     15667 MEMB     137      CHL1     C21      CTL3    -0.270000       12.0110           0
     15668 MEMB     137      CHL1     H21A     HAL3     0.900000E-01   1.00800           0
     15669 MEMB     137      CHL1     H21B     HAL3     0.900000E-01   1.00800           0
     15670 MEMB     137      CHL1     H21C     HAL3     0.900000E-01   1.00800           0
     15671 MEMB     137      CHL1     C22      CTL2    -0.180000       12.0110           0
     15672 MEMB     137      CHL1     H22A     HAL2     0.900000E-01   1.00800           0
     15673 MEMB     137      CHL1     H22B     HAL2     0.900000E-01   1.00800           0
     15674 MEMB     137      CHL1     C23      CTL2    -0.180000       12.0110           0
     15675 MEMB     137      CHL1     H23A     HAL2     0.900000E-01   1.00800           0
     15676 MEMB     137      CHL1     H23B     HAL2     0.900000E-01   1.00800           0
     15677 MEMB     137      CHL1     C24      CTL2    -0.180000       12.0110           0
     15678 MEMB     137      CHL1     H24A     HAL2     0.900000E-01   1.00800           0
     15679 MEMB     137      CHL1     H24B     HAL2     0.900000E-01   1.00800           0
     15680 MEMB     137      CHL1     C25      CTL1    -0.900000E-01   12.0110           0
     15681 MEMB     137      CHL1     H25      HAL1     0.900000E-01   1.00800           0
     15682 MEMB     137      CHL1     C26      CTL3    -0.270000       12.0110           0
     15683 MEMB     137      CHL1     H26A     HAL3     0.900000E-01   1.00800           0
     15684 MEMB     137      CHL1     H26B     HAL3     0.900000E-01   1.00800           0
     15685 MEMB     137      CHL1     H26C     HAL3     0.900000E-01   1.00800           0
     15686 MEMB     137      CHL1     C27      CTL3    -0.270000       12.0110           0
     15687 MEMB     137      CHL1     H27A     HAL3     0.900000E-01   1.00800           0
     15688 MEMB     137      CHL1     H27B     HAL3     0.900000E-01   1.00800           0
     15689 MEMB     137      CHL1     H27C     HAL3     0.900000E-01   1.00800           0
     15690 MEMB     138      OSM      N        NTL     -0.600000       14.0070           0
     15691 MEMB     138      OSM      C15      CTL5    -0.350000       12.0110           0
     15692 MEMB     138      OSM      H15A     HL       0.250000       1.00800           0
     15693 MEMB     138      OSM      H15B     HL       0.250000       1.00800           0
     15694 MEMB     138      OSM      H15C     HL       0.250000       1.00800           0
     15695 MEMB     138      OSM      C14      CTL5    -0.350000       12.0110           0
     15696 MEMB     138      OSM      H14A     HL       0.250000       1.00800           0
     15697 MEMB     138      OSM      H14B     HL       0.250000       1.00800           0
     15698 MEMB     138      OSM      H14C     HL       0.250000       1.00800           0
     15699 MEMB     138      OSM      C13      CTL5    -0.350000       12.0110           0
     15700 MEMB     138      OSM      H13A     HL       0.250000       1.00800           0
     15701 MEMB     138      OSM      H13B     HL       0.250000       1.00800           0
     15702 MEMB     138      OSM      H13C     HL       0.250000       1.00800           0
     15703 MEMB     138      OSM      C12      CTL2    -0.100000       12.0110           0
     15704 MEMB     138      OSM      H12A     HL       0.250000       1.00800           0
     15705 MEMB     138      OSM      H12B     HL       0.250000       1.00800           0
     15706 MEMB     138      OSM      C11      CTL2    -0.800000E-01   12.0110           0
     15707 MEMB     138      OSM      H11A     HAL2     0.900000E-01   1.00800           0
     15708 MEMB     138      OSM      H11B     HAL2     0.900000E-01   1.00800           0
     15709 MEMB     138      OSM      P        PL        1.50000       30.9740           0
     15710 MEMB     138      OSM      O13      O2L     -0.780000       15.9994           0
     15711 MEMB     138      OSM      O14      O2L     -0.780000       15.9994           0
     15712 MEMB     138      OSM      O11      OSLP    -0.570000       15.9994           0
     15713 MEMB     138      OSM      O12      OSLP    -0.570000       15.9994           0
     15714 MEMB     138      OSM      C1S      CTL2    -0.800000E-01   12.0110           0
     15715 MEMB     138      OSM      H1S      HAL2     0.900000E-01   1.00800           0
     15716 MEMB     138      OSM      H1T      HAL2     0.900000E-01   1.00800           0
     15717 MEMB     138      OSM      NF       NHL     -0.700000       14.0070           0
     15718 MEMB     138      OSM      HNF      H        0.350000       1.00800           0
     15719 MEMB     138      OSM      C2S      CTL1     0.300000       12.0110           0
     15720 MEMB     138      OSM      H2S      HAL1     0.500000E-01   1.00800           0
     15721 MEMB     138      OSM      C3S      CTO1     0.500000       12.0110           0
     15722 MEMB     138      OSM      H3S      HAL1    -0.110000       1.00800           0
     15723 MEMB     138      OSM      O3       OHL     -0.690000       15.9994           0
     15724 MEMB     138      OSM      HO3      HOL      0.300000       1.00800           0
     15725 MEMB     138      OSM      C4S      CEL3    -0.150000       12.0110           0
     15726 MEMB     138      OSM      H4S      HEL1     0.150000       1.00800           0
     15727 MEMB     138      OSM      C5S      CEL3    -0.150000       12.0110           0
     15728 MEMB     138      OSM      H5S      HEL1     0.150000       1.00800           0
     15729 MEMB     138      OSM      C6S      CTL2    -0.180000       12.0110           0
     15730 MEMB     138      OSM      H6S      HAL2     0.900000E-01   1.00800           0
     15731 MEMB     138      OSM      H6T      HAL2     0.900000E-01   1.00800           0
     15732 MEMB     138      OSM      C7S      CTL2    -0.180000       12.0110           0
     15733 MEMB     138      OSM      H7S      HAL2     0.900000E-01   1.00800           0
     15734 MEMB     138      OSM      H7T      HAL2     0.900000E-01   1.00800           0
     15735 MEMB     138      OSM      C8S      CTL2    -0.180000       12.0110           0
     15736 MEMB     138      OSM      H8S      HAL2     0.900000E-01   1.00800           0
     15737 MEMB     138      OSM      H8T      HAL2     0.900000E-01   1.00800           0
     15738 MEMB     138      OSM      C9S      CTL2    -0.180000       12.0110           0
     15739 MEMB     138      OSM      H9S      HAL2     0.900000E-01   1.00800           0
     15740 MEMB     138      OSM      H9T      HAL2     0.900000E-01   1.00800           0
     15741 MEMB     138      OSM      C10S     CTL2    -0.180000       12.0110           0
     15742 MEMB     138      OSM      H10S     HAL2     0.900000E-01   1.00800           0
     15743 MEMB     138      OSM      H10T     HAL2     0.900000E-01   1.00800           0
     15744 MEMB     138      OSM      C11S     CTL2    -0.180000       12.0110           0
     15745 MEMB     138      OSM      H11S     HAL2     0.900000E-01   1.00800           0
     15746 MEMB     138      OSM      H11T     HAL2     0.900000E-01   1.00800           0
     15747 MEMB     138      OSM      C12S     CTL2    -0.180000       12.0110           0
     15748 MEMB     138      OSM      H12S     HAL2     0.900000E-01   1.00800           0
     15749 MEMB     138      OSM      H12T     HAL2     0.900000E-01   1.00800           0
     15750 MEMB     138      OSM      C13S     CTL2    -0.180000       12.0110           0
     15751 MEMB     138      OSM      H13S     HAL2     0.900000E-01   1.00800           0
     15752 MEMB     138      OSM      H13T     HAL2     0.900000E-01   1.00800           0
     15753 MEMB     138      OSM      C14S     CTL2    -0.180000       12.0110           0
     15754 MEMB     138      OSM      H14S     HAL2     0.900000E-01   1.00800           0
     15755 MEMB     138      OSM      H14T     HAL2     0.900000E-01   1.00800           0
     15756 MEMB     138      OSM      C15S     CTL2    -0.180000       12.0110           0
     15757 MEMB     138      OSM      H15S     HAL2     0.900000E-01   1.00800           0
     15758 MEMB     138      OSM      H15T     HAL2     0.900000E-01   1.00800           0
     15759 MEMB     138      OSM      C16S     CTL2    -0.180000       12.0110           0
     15760 MEMB     138      OSM      H16S     HAL2     0.900000E-01   1.00800           0
     15761 MEMB     138      OSM      H16T     HAL2     0.900000E-01   1.00800           0
     15762 MEMB     138      OSM      C17S     CTL2    -0.180000       12.0110           0
     15763 MEMB     138      OSM      H17S     HAL2     0.900000E-01   1.00800           0
     15764 MEMB     138      OSM      H17T     HAL2     0.900000E-01   1.00800           0
     15765 MEMB     138      OSM      C18S     CTL3    -0.270000       12.0110           0
     15766 MEMB     138      OSM      H18S     HAL3     0.900000E-01   1.00800           0
     15767 MEMB     138      OSM      H18T     HAL3     0.900000E-01   1.00800           0
     15768 MEMB     138      OSM      H18U     HAL3     0.900000E-01   1.00800           0
     15769 MEMB     138      OSM      C1F      C        0.550000       12.0110           0
     15770 MEMB     138      OSM      OF       O       -0.600000       15.9994           0
     15771 MEMB     138      OSM      C2F      CTL2    -0.700000E-01   12.0110           0
     15772 MEMB     138      OSM      H2F      HAL2     0.600000E-01   1.00800           0
     15773 MEMB     138      OSM      H2G      HAL2     0.600000E-01   1.00800           0
     15774 MEMB     138      OSM      C3F      CTL2    -0.180000       12.0110           0
     15775 MEMB     138      OSM      H3F      HAL2     0.900000E-01   1.00800           0
     15776 MEMB     138      OSM      H3G      HAL2     0.900000E-01   1.00800           0
     15777 MEMB     138      OSM      C4F      CTL2    -0.180000       12.0110           0
     15778 MEMB     138      OSM      H4F      HAL2     0.900000E-01   1.00800           0
     15779 MEMB     138      OSM      H4G      HAL2     0.900000E-01   1.00800           0
     15780 MEMB     138      OSM      C5F      CTL2    -0.180000       12.0110           0
     15781 MEMB     138      OSM      H5F      HAL2     0.900000E-01   1.00800           0
     15782 MEMB     138      OSM      H5G      HAL2     0.900000E-01   1.00800           0
     15783 MEMB     138      OSM      C6F      CTL2    -0.180000       12.0110           0
     15784 MEMB     138      OSM      H6F      HAL2     0.900000E-01   1.00800           0
     15785 MEMB     138      OSM      H6G      HAL2     0.900000E-01   1.00800           0
     15786 MEMB     138      OSM      C7F      CTL2    -0.180000       12.0110           0
     15787 MEMB     138      OSM      H7F      HAL2     0.900000E-01   1.00800           0
     15788 MEMB     138      OSM      H7G      HAL2     0.900000E-01   1.00800           0
     15789 MEMB     138      OSM      C8F      CTL2    -0.180000       12.0110           0
     15790 MEMB     138      OSM      H8F      HAL2     0.900000E-01   1.00800           0
     15791 MEMB     138      OSM      H8G      HAL2     0.900000E-01   1.00800           0
     15792 MEMB     138      OSM      C9F      CEL1    -0.150000       12.0110           0
     15793 MEMB     138      OSM      H9F      HEL1     0.150000       1.00800           0
     15794 MEMB     138      OSM      C10F     CEL1    -0.150000       12.0110           0
     15795 MEMB     138      OSM      H10F     HEL1     0.150000       1.00800           0
     15796 MEMB     138      OSM      C11F     CTL2    -0.180000       12.0110           0
     15797 MEMB     138      OSM      H11F     HAL2     0.900000E-01   1.00800           0
     15798 MEMB     138      OSM      H11G     HAL2     0.900000E-01   1.00800           0
     15799 MEMB     138      OSM      C12F     CTL2    -0.180000       12.0110           0
     15800 MEMB     138      OSM      H12F     HAL2     0.900000E-01   1.00800           0
     15801 MEMB     138      OSM      H12G     HAL2     0.900000E-01   1.00800           0
     15802 MEMB     138      OSM      C13F     CTL2    -0.180000       12.0110           0
     15803 MEMB     138      OSM      H13F     HAL2     0.900000E-01   1.00800           0
     15804 MEMB     138      OSM      H13G     HAL2     0.900000E-01   1.00800           0
     15805 MEMB     138      OSM      C14F     CTL2    -0.180000       12.0110           0
     15806 MEMB     138      OSM      H14F     HAL2     0.900000E-01   1.00800           0
     15807 MEMB     138      OSM      H14G     HAL2     0.900000E-01   1.00800           0
     15808 MEMB     138      OSM      C15F     CTL2    -0.180000       12.0110           0
     15809 MEMB     138      OSM      H15F     HAL2     0.900000E-01   1.00800           0
     15810 MEMB     138      OSM      H15G     HAL2     0.900000E-01   1.00800           0
     15811 MEMB     138      OSM      C16F     CTL2    -0.180000       12.0110           0
     15812 MEMB     138      OSM      H16F     HAL2     0.900000E-01   1.00800           0
     15813 MEMB     138      OSM      H16G     HAL2     0.900000E-01   1.00800           0
     15814 MEMB     138      OSM      C17F     CTL2    -0.180000       12.0110           0
     15815 MEMB     138      OSM      H17F     HAL2     0.900000E-01   1.00800           0
     15816 MEMB     138      OSM      H17G     HAL2     0.900000E-01   1.00800           0
     15817 MEMB     138      OSM      C18F     CTL3    -0.270000       12.0110           0
     15818 MEMB     138      OSM      H18F     HAL3     0.900000E-01   1.00800           0
     15819 MEMB     138      OSM      H18G     HAL3     0.900000E-01   1.00800           0
     15820 MEMB     138      OSM      H18H     HAL3     0.900000E-01   1.00800           0
     15821 MEMB     139      SAPE     N        NH3L    -0.300000       14.0070           0
     15822 MEMB     139      SAPE     HN1      HCL      0.330000       1.00800           0
     15823 MEMB     139      SAPE     HN2      HCL      0.330000       1.00800           0
     15824 MEMB     139      SAPE     HN3      HCL      0.330000       1.00800           0
     15825 MEMB     139      SAPE     C12      CTL2     0.130000       12.0110           0
     15826 MEMB     139      SAPE     H12A     HAL2     0.900000E-01   1.00800           0
     15827 MEMB     139      SAPE     H12B     HAL2     0.900000E-01   1.00800           0
     15828 MEMB     139      SAPE     C11      CTL2    -0.800000E-01   12.0110           0
     15829 MEMB     139      SAPE     H11A     HAL2     0.900000E-01   1.00800           0
     15830 MEMB     139      SAPE     H11B     HAL2     0.900000E-01   1.00800           0
     15831 MEMB     139      SAPE     P        PL        1.50000       30.9740           0
     15832 MEMB     139      SAPE     O13      O2L     -0.780000       15.9994           0
     15833 MEMB     139      SAPE     O14      O2L     -0.780000       15.9994           0
     15834 MEMB     139      SAPE     O12      OSLP    -0.570000       15.9994           0
     15835 MEMB     139      SAPE     O11      OSLP    -0.570000       15.9994           0
     15836 MEMB     139      SAPE     C1       CTL2    -0.800000E-01   12.0110           0
     15837 MEMB     139      SAPE     HA       HAL2     0.900000E-01   1.00800           0
     15838 MEMB     139      SAPE     HB       HAL2     0.900000E-01   1.00800           0
     15839 MEMB     139      SAPE     C2       CTL1     0.170000       12.0110           0
     15840 MEMB     139      SAPE     HS       HAL1     0.900000E-01   1.00800           0
     15841 MEMB     139      SAPE     O21      OSL     -0.490000       15.9994           0
     15842 MEMB     139      SAPE     C21      CL       0.900000       12.0110           0
     15843 MEMB     139      SAPE     O22      OBL     -0.630000       15.9994           0
     15844 MEMB     139      SAPE     C22      CTL2    -0.220000       12.0110           0
     15845 MEMB     139      SAPE     H2R      HAL2     0.900000E-01   1.00800           0
     15846 MEMB     139      SAPE     H2S      HAL2     0.900000E-01   1.00800           0
     15847 MEMB     139      SAPE     C3       CTL2     0.800000E-01   12.0110           0
     15848 MEMB     139      SAPE     HX       HAL2     0.900000E-01   1.00800           0
     15849 MEMB     139      SAPE     HY       HAL2     0.900000E-01   1.00800           0
     15850 MEMB     139      SAPE     O31      OSL     -0.490000       15.9994           0
     15851 MEMB     139      SAPE     C31      CL       0.900000       12.0110           0
     15852 MEMB     139      SAPE     O32      OBL     -0.630000       15.9994           0
     15853 MEMB     139      SAPE     C32      CTL2    -0.220000       12.0110           0
     15854 MEMB     139      SAPE     H2X      HAL2     0.900000E-01   1.00800           0
     15855 MEMB     139      SAPE     H2Y      HAL2     0.900000E-01   1.00800           0
     15856 MEMB     139      SAPE     C23      CTL2    -0.180000       12.0110           0
     15857 MEMB     139      SAPE     H3R      HAL2     0.900000E-01   1.00800           0
     15858 MEMB     139      SAPE     H3S      HAL2     0.900000E-01   1.00800           0
     15859 MEMB     139      SAPE     C24      CTL2    -0.180000       12.0110           0
     15860 MEMB     139      SAPE     H4R      HAL2     0.900000E-01   1.00800           0
     15861 MEMB     139      SAPE     H4S      HAL2     0.900000E-01   1.00800           0
     15862 MEMB     139      SAPE     C25      CEL1    -0.150000       12.0110           0
     15863 MEMB     139      SAPE     H5R      HEL1     0.150000       1.00800           0
     15864 MEMB     139      SAPE     C26      CEL1    -0.150000       12.0110           0
     15865 MEMB     139      SAPE     H6R      HEL1     0.150000       1.00800           0
     15866 MEMB     139      SAPE     C27      CTL2    -0.180000       12.0110           0
     15867 MEMB     139      SAPE     H7R      HAL2     0.900000E-01   1.00800           0
     15868 MEMB     139      SAPE     H7S      HAL2     0.900000E-01   1.00800           0
     15869 MEMB     139      SAPE     C28      CEL1    -0.150000       12.0110           0
     15870 MEMB     139      SAPE     H8R      HEL1     0.150000       1.00800           0
     15871 MEMB     139      SAPE     C29      CEL1    -0.150000       12.0110           0
     15872 MEMB     139      SAPE     H9R      HEL1     0.150000       1.00800           0
     15873 MEMB     139      SAPE     C210     CTL2    -0.180000       12.0110           0
     15874 MEMB     139      SAPE     H10R     HAL2     0.900000E-01   1.00800           0
     15875 MEMB     139      SAPE     H10S     HAL2     0.900000E-01   1.00800           0
     15876 MEMB     139      SAPE     C211     CEL1    -0.150000       12.0110           0
     15877 MEMB     139      SAPE     H11R     HEL1     0.150000       1.00800           0
     15878 MEMB     139      SAPE     C212     CEL1    -0.150000       12.0110           0
     15879 MEMB     139      SAPE     H12R     HEL1     0.150000       1.00800           0
     15880 MEMB     139      SAPE     C213     CTL2    -0.180000       12.0110           0
     15881 MEMB     139      SAPE     H13R     HAL2     0.900000E-01   1.00800           0
     15882 MEMB     139      SAPE     H13S     HAL2     0.900000E-01   1.00800           0
     15883 MEMB     139      SAPE     C214     CEL1    -0.150000       12.0110           0
     15884 MEMB     139      SAPE     H14R     HEL1     0.150000       1.00800           0
     15885 MEMB     139      SAPE     C215     CEL1    -0.150000       12.0110           0
     15886 MEMB     139      SAPE     H15R     HEL1     0.150000       1.00800           0
     15887 MEMB     139      SAPE     C216     CTL2    -0.180000       12.0110           0
     15888 MEMB     139      SAPE     H16R     HAL2     0.900000E-01   1.00800           0
     15889 MEMB     139      SAPE     H16S     HAL2     0.900000E-01   1.00800           0
     15890 MEMB     139      SAPE     C217     CTL2    -0.180000       12.0110           0
     15891 MEMB     139      SAPE     H17R     HAL2     0.900000E-01   1.00800           0
     15892 MEMB     139      SAPE     H17S     HAL2     0.900000E-01   1.00800           0
     15893 MEMB     139      SAPE     C218     CTL2    -0.180000       12.0110           0
     15894 MEMB     139      SAPE     H18R     HAL2     0.900000E-01   1.00800           0
     15895 MEMB     139      SAPE     H18S     HAL2     0.900000E-01   1.00800           0
     15896 MEMB     139      SAPE     C219     CTL2    -0.180000       12.0110           0
     15897 MEMB     139      SAPE     H19R     HAL2     0.900000E-01   1.00800           0
     15898 MEMB     139      SAPE     H19S     HAL2     0.900000E-01   1.00800           0
     15899 MEMB     139      SAPE     C220     CTL3    -0.270000       12.0110           0
     15900 MEMB     139      SAPE     H20R     HAL3     0.900000E-01   1.00800           0
     15901 MEMB     139      SAPE     H20S     HAL3     0.900000E-01   1.00800           0
     15902 MEMB     139      SAPE     H20T     HAL3     0.900000E-01   1.00800           0
     15903 MEMB     139      SAPE     C33      CTL2    -0.180000       12.0110           0
     15904 MEMB     139      SAPE     H3X      HAL2     0.900000E-01   1.00800           0
     15905 MEMB     139      SAPE     H3Y      HAL2     0.900000E-01   1.00800           0
     15906 MEMB     139      SAPE     C34      CTL2    -0.180000       12.0110           0
     15907 MEMB     139      SAPE     H4X      HAL2     0.900000E-01   1.00800           0
     15908 MEMB     139      SAPE     H4Y      HAL2     0.900000E-01   1.00800           0
     15909 MEMB     139      SAPE     C35      CTL2    -0.180000       12.0110           0
     15910 MEMB     139      SAPE     H5X      HAL2     0.900000E-01   1.00800           0
     15911 MEMB     139      SAPE     H5Y      HAL2     0.900000E-01   1.00800           0
     15912 MEMB     139      SAPE     C36      CTL2    -0.180000       12.0110           0
     15913 MEMB     139      SAPE     H6X      HAL2     0.900000E-01   1.00800           0
     15914 MEMB     139      SAPE     H6Y      HAL2     0.900000E-01   1.00800           0
     15915 MEMB     139      SAPE     C37      CTL2    -0.180000       12.0110           0
     15916 MEMB     139      SAPE     H7X      HAL2     0.900000E-01   1.00800           0
     15917 MEMB     139      SAPE     H7Y      HAL2     0.900000E-01   1.00800           0
     15918 MEMB     139      SAPE     C38      CTL2    -0.180000       12.0110           0
     15919 MEMB     139      SAPE     H8X      HAL2     0.900000E-01   1.00800           0
     15920 MEMB     139      SAPE     H8Y      HAL2     0.900000E-01   1.00800           0
     15921 MEMB     139      SAPE     C39      CTL2    -0.180000       12.0110           0
     15922 MEMB     139      SAPE     H9X      HAL2     0.900000E-01   1.00800           0
     15923 MEMB     139      SAPE     H9Y      HAL2     0.900000E-01   1.00800           0
     15924 MEMB     139      SAPE     C310     CTL2    -0.180000       12.0110           0
     15925 MEMB     139      SAPE     H10X     HAL2     0.900000E-01   1.00800           0
     15926 MEMB     139      SAPE     H10Y     HAL2     0.900000E-01   1.00800           0
     15927 MEMB     139      SAPE     C311     CTL2    -0.180000       12.0110           0
     15928 MEMB     139      SAPE     H11X     HAL2     0.900000E-01   1.00800           0
     15929 MEMB     139      SAPE     H11Y     HAL2     0.900000E-01   1.00800           0
     15930 MEMB     139      SAPE     C312     CTL2    -0.180000       12.0110           0
     15931 MEMB     139      SAPE     H12X     HAL2     0.900000E-01   1.00800           0
     15932 MEMB     139      SAPE     H12Y     HAL2     0.900000E-01   1.00800           0
     15933 MEMB     139      SAPE     C313     CTL2    -0.180000       12.0110           0
     15934 MEMB     139      SAPE     H13X     HAL2     0.900000E-01   1.00800           0
     15935 MEMB     139      SAPE     H13Y     HAL2     0.900000E-01   1.00800           0
     15936 MEMB     139      SAPE     C314     CTL2    -0.180000       12.0110           0
     15937 MEMB     139      SAPE     H14X     HAL2     0.900000E-01   1.00800           0
     15938 MEMB     139      SAPE     H14Y     HAL2     0.900000E-01   1.00800           0
     15939 MEMB     139      SAPE     C315     CTL2    -0.180000       12.0110           0
     15940 MEMB     139      SAPE     H15X     HAL2     0.900000E-01   1.00800           0
     15941 MEMB     139      SAPE     H15Y     HAL2     0.900000E-01   1.00800           0
     15942 MEMB     139      SAPE     C316     CTL2    -0.180000       12.0110           0
     15943 MEMB     139      SAPE     H16X     HAL2     0.900000E-01   1.00800           0
     15944 MEMB     139      SAPE     H16Y     HAL2     0.900000E-01   1.00800           0
     15945 MEMB     139      SAPE     C317     CTL2    -0.180000       12.0110           0
     15946 MEMB     139      SAPE     H17X     HAL2     0.900000E-01   1.00800           0
     15947 MEMB     139      SAPE     H17Y     HAL2     0.900000E-01   1.00800           0
     15948 MEMB     139      SAPE     C318     CTL3    -0.270000       12.0110           0
     15949 MEMB     139      SAPE     H18X     HAL3     0.900000E-01   1.00800           0
     15950 MEMB     139      SAPE     H18Y     HAL3     0.900000E-01   1.00800           0
     15951 MEMB     139      SAPE     H18Z     HAL3     0.900000E-01   1.00800           0
     15952 MEMB     140      SLPC     N        NTL     -0.600000       14.0070           0
     15953 MEMB     140      SLPC     C13      CTL5    -0.350000       12.0110           0
     15954 MEMB     140      SLPC     H13A     HL       0.250000       1.00800           0
     15955 MEMB     140      SLPC     H13B     HL       0.250000       1.00800           0
     15956 MEMB     140      SLPC     H13C     HL       0.250000       1.00800           0
     15957 MEMB     140      SLPC     C14      CTL5    -0.350000       12.0110           0
     15958 MEMB     140      SLPC     H14A     HL       0.250000       1.00800           0
     15959 MEMB     140      SLPC     H14B     HL       0.250000       1.00800           0
     15960 MEMB     140      SLPC     H14C     HL       0.250000       1.00800           0
     15961 MEMB     140      SLPC     C15      CTL5    -0.350000       12.0110           0
     15962 MEMB     140      SLPC     H15A     HL       0.250000       1.00800           0
     15963 MEMB     140      SLPC     H15B     HL       0.250000       1.00800           0
     15964 MEMB     140      SLPC     H15C     HL       0.250000       1.00800           0
     15965 MEMB     140      SLPC     C12      CTL2    -0.100000       12.0110           0
     15966 MEMB     140      SLPC     H12A     HL       0.250000       1.00800           0
     15967 MEMB     140      SLPC     H12B     HL       0.250000       1.00800           0
     15968 MEMB     140      SLPC     C11      CTL2    -0.800000E-01   12.0110           0
     15969 MEMB     140      SLPC     H11A     HAL2     0.900000E-01   1.00800           0
     15970 MEMB     140      SLPC     H11B     HAL2     0.900000E-01   1.00800           0
     15971 MEMB     140      SLPC     P        PL        1.50000       30.9740           0
     15972 MEMB     140      SLPC     O13      O2L     -0.780000       15.9994           0
     15973 MEMB     140      SLPC     O14      O2L     -0.780000       15.9994           0
     15974 MEMB     140      SLPC     O12      OSLP    -0.570000       15.9994           0
     15975 MEMB     140      SLPC     O11      OSLP    -0.570000       15.9994           0
     15976 MEMB     140      SLPC     C1       CTL2    -0.800000E-01   12.0110           0
     15977 MEMB     140      SLPC     HA       HAL2     0.900000E-01   1.00800           0
     15978 MEMB     140      SLPC     HB       HAL2     0.900000E-01   1.00800           0
     15979 MEMB     140      SLPC     C2       CTL1     0.170000       12.0110           0
     15980 MEMB     140      SLPC     HS       HAL1     0.900000E-01   1.00800           0
     15981 MEMB     140      SLPC     O21      OSL     -0.490000       15.9994           0
     15982 MEMB     140      SLPC     C21      CL       0.900000       12.0110           0
     15983 MEMB     140      SLPC     O22      OBL     -0.630000       15.9994           0
     15984 MEMB     140      SLPC     C22      CTL2    -0.220000       12.0110           0
     15985 MEMB     140      SLPC     H2R      HAL2     0.900000E-01   1.00800           0
     15986 MEMB     140      SLPC     H2S      HAL2     0.900000E-01   1.00800           0
     15987 MEMB     140      SLPC     C3       CTL2     0.800000E-01   12.0110           0
     15988 MEMB     140      SLPC     HX       HAL2     0.900000E-01   1.00800           0
     15989 MEMB     140      SLPC     HY       HAL2     0.900000E-01   1.00800           0
     15990 MEMB     140      SLPC     O31      OSL     -0.490000       15.9994           0
     15991 MEMB     140      SLPC     C31      CL       0.900000       12.0110           0
     15992 MEMB     140      SLPC     O32      OBL     -0.630000       15.9994           0
     15993 MEMB     140      SLPC     C32      CTL2    -0.220000       12.0110           0
     15994 MEMB     140      SLPC     H2X      HAL2     0.900000E-01   1.00800           0
     15995 MEMB     140      SLPC     H2Y      HAL2     0.900000E-01   1.00800           0
     15996 MEMB     140      SLPC     C23      CTL2    -0.180000       12.0110           0
     15997 MEMB     140      SLPC     H3R      HAL2     0.900000E-01   1.00800           0
     15998 MEMB     140      SLPC     H3S      HAL2     0.900000E-01   1.00800           0
     15999 MEMB     140      SLPC     C24      CTL2    -0.180000       12.0110           0
     16000 MEMB     140      SLPC     H4R      HAL2     0.900000E-01   1.00800           0
     16001 MEMB     140      SLPC     H4S      HAL2     0.900000E-01   1.00800           0
     16002 MEMB     140      SLPC     C25      CTL2    -0.180000       12.0110           0
     16003 MEMB     140      SLPC     H5R      HAL2     0.900000E-01   1.00800           0
     16004 MEMB     140      SLPC     H5S      HAL2     0.900000E-01   1.00800           0
     16005 MEMB     140      SLPC     C26      CTL2    -0.180000       12.0110           0
     16006 MEMB     140      SLPC     H6R      HAL2     0.900000E-01   1.00800           0
     16007 MEMB     140      SLPC     H6S      HAL2     0.900000E-01   1.00800           0
     16008 MEMB     140      SLPC     C27      CTL2    -0.180000       12.0110           0
     16009 MEMB     140      SLPC     H7R      HAL2     0.900000E-01   1.00800           0
     16010 MEMB     140      SLPC     H7S      HAL2     0.900000E-01   1.00800           0
     16011 MEMB     140      SLPC     C28      CTL2    -0.180000       12.0110           0
     16012 MEMB     140      SLPC     H8R      HAL2     0.900000E-01   1.00800           0
     16013 MEMB     140      SLPC     H8S      HAL2     0.900000E-01   1.00800           0
     16014 MEMB     140      SLPC     C29      CEL1    -0.150000       12.0110           0
     16015 MEMB     140      SLPC     H9R      HEL1     0.150000       1.00800           0
     16016 MEMB     140      SLPC     C210     CEL1    -0.150000       12.0110           0
     16017 MEMB     140      SLPC     H10R     HEL1     0.150000       1.00800           0
     16018 MEMB     140      SLPC     C211     CTL2    -0.180000       12.0110           0
     16019 MEMB     140      SLPC     H11R     HAL2     0.900000E-01   1.00800           0
     16020 MEMB     140      SLPC     H11S     HAL2     0.900000E-01   1.00800           0
     16021 MEMB     140      SLPC     C212     CEL1    -0.150000       12.0110           0
     16022 MEMB     140      SLPC     H12R     HEL1     0.150000       1.00800           0
     16023 MEMB     140      SLPC     C213     CEL1    -0.150000       12.0110           0
     16024 MEMB     140      SLPC     H13R     HEL1     0.150000       1.00800           0
     16025 MEMB     140      SLPC     C214     CTL2    -0.180000       12.0110           0
     16026 MEMB     140      SLPC     H14R     HAL2     0.900000E-01   1.00800           0
     16027 MEMB     140      SLPC     H14S     HAL2     0.900000E-01   1.00800           0
     16028 MEMB     140      SLPC     C215     CTL2    -0.180000       12.0110           0
     16029 MEMB     140      SLPC     H15R     HAL2     0.900000E-01   1.00800           0
     16030 MEMB     140      SLPC     H15S     HAL2     0.900000E-01   1.00800           0
     16031 MEMB     140      SLPC     C216     CTL2    -0.180000       12.0110           0
     16032 MEMB     140      SLPC     H16R     HAL2     0.900000E-01   1.00800           0
     16033 MEMB     140      SLPC     H16S     HAL2     0.900000E-01   1.00800           0
     16034 MEMB     140      SLPC     C217     CTL2    -0.180000       12.0110           0
     16035 MEMB     140      SLPC     H17R     HAL2     0.900000E-01   1.00800           0
     16036 MEMB     140      SLPC     H17S     HAL2     0.900000E-01   1.00800           0
     16037 MEMB     140      SLPC     C218     CTL3    -0.270000       12.0110           0
     16038 MEMB     140      SLPC     H18R     HAL3     0.900000E-01   1.00800           0
     16039 MEMB     140      SLPC     H18S     HAL3     0.900000E-01   1.00800           0
     16040 MEMB     140      SLPC     H18T     HAL3     0.900000E-01   1.00800           0
     16041 MEMB     140      SLPC     C33      CTL2    -0.180000       12.0110           0
     16042 MEMB     140      SLPC     H3X      HAL2     0.900000E-01   1.00800           0
     16043 MEMB     140      SLPC     H3Y      HAL2     0.900000E-01   1.00800           0
     16044 MEMB     140      SLPC     C34      CTL2    -0.180000       12.0110           0
     16045 MEMB     140      SLPC     H4X      HAL2     0.900000E-01   1.00800           0
     16046 MEMB     140      SLPC     H4Y      HAL2     0.900000E-01   1.00800           0
     16047 MEMB     140      SLPC     C35      CTL2    -0.180000       12.0110           0
     16048 MEMB     140      SLPC     H5X      HAL2     0.900000E-01   1.00800           0
     16049 MEMB     140      SLPC     H5Y      HAL2     0.900000E-01   1.00800           0
     16050 MEMB     140      SLPC     C36      CTL2    -0.180000       12.0110           0
     16051 MEMB     140      SLPC     H6X      HAL2     0.900000E-01   1.00800           0
     16052 MEMB     140      SLPC     H6Y      HAL2     0.900000E-01   1.00800           0
     16053 MEMB     140      SLPC     C37      CTL2    -0.180000       12.0110           0
     16054 MEMB     140      SLPC     H7X      HAL2     0.900000E-01   1.00800           0
     16055 MEMB     140      SLPC     H7Y      HAL2     0.900000E-01   1.00800           0
     16056 MEMB     140      SLPC     C38      CTL2    -0.180000       12.0110           0
     16057 MEMB     140      SLPC     H8X      HAL2     0.900000E-01   1.00800           0
     16058 MEMB     140      SLPC     H8Y      HAL2     0.900000E-01   1.00800           0
     16059 MEMB     140      SLPC     C39      CTL2    -0.180000       12.0110           0
     16060 MEMB     140      SLPC     H9X      HAL2     0.900000E-01   1.00800           0
     16061 MEMB     140      SLPC     H9Y      HAL2     0.900000E-01   1.00800           0
     16062 MEMB     140      SLPC     C310     CTL2    -0.180000       12.0110           0
     16063 MEMB     140      SLPC     H10X     HAL2     0.900000E-01   1.00800           0
     16064 MEMB     140      SLPC     H10Y     HAL2     0.900000E-01   1.00800           0
     16065 MEMB     140      SLPC     C311     CTL2    -0.180000       12.0110           0
     16066 MEMB     140      SLPC     H11X     HAL2     0.900000E-01   1.00800           0
     16067 MEMB     140      SLPC     H11Y     HAL2     0.900000E-01   1.00800           0
     16068 MEMB     140      SLPC     C312     CTL2    -0.180000       12.0110           0
     16069 MEMB     140      SLPC     H12X     HAL2     0.900000E-01   1.00800           0
     16070 MEMB     140      SLPC     H12Y     HAL2     0.900000E-01   1.00800           0
     16071 MEMB     140      SLPC     C313     CTL2    -0.180000       12.0110           0
     16072 MEMB     140      SLPC     H13X     HAL2     0.900000E-01   1.00800           0
     16073 MEMB     140      SLPC     H13Y     HAL2     0.900000E-01   1.00800           0
     16074 MEMB     140      SLPC     C314     CTL2    -0.180000       12.0110           0
     16075 MEMB     140      SLPC     H14X     HAL2     0.900000E-01   1.00800           0
     16076 MEMB     140      SLPC     H14Y     HAL2     0.900000E-01   1.00800           0
     16077 MEMB     140      SLPC     C315     CTL2    -0.180000       12.0110           0
     16078 MEMB     140      SLPC     H15X     HAL2     0.900000E-01   1.00800           0
     16079 MEMB     140      SLPC     H15Y     HAL2     0.900000E-01   1.00800           0
     16080 MEMB     140      SLPC     C316     CTL2    -0.180000       12.0110           0
     16081 MEMB     140      SLPC     H16X     HAL2     0.900000E-01   1.00800           0
     16082 MEMB     140      SLPC     H16Y     HAL2     0.900000E-01   1.00800           0
     16083 MEMB     140      SLPC     C317     CTL2    -0.180000       12.0110           0
     16084 MEMB     140      SLPC     H17X     HAL2     0.900000E-01   1.00800           0
     16085 MEMB     140      SLPC     H17Y     HAL2     0.900000E-01   1.00800           0
     16086 MEMB     140      SLPC     C318     CTL3    -0.270000       12.0110           0
     16087 MEMB     140      SLPC     H18X     HAL3     0.900000E-01   1.00800           0
     16088 MEMB     140      SLPC     H18Y     HAL3     0.900000E-01   1.00800           0
     16089 MEMB     140      SLPC     H18Z     HAL3     0.900000E-01   1.00800           0
     16090 MEMB     141      SLPC     N        NTL     -0.600000       14.0070           0
     16091 MEMB     141      SLPC     C13      CTL5    -0.350000       12.0110           0
     16092 MEMB     141      SLPC     H13A     HL       0.250000       1.00800           0
     16093 MEMB     141      SLPC     H13B     HL       0.250000       1.00800           0
     16094 MEMB     141      SLPC     H13C     HL       0.250000       1.00800           0
     16095 MEMB     141      SLPC     C14      CTL5    -0.350000       12.0110           0
     16096 MEMB     141      SLPC     H14A     HL       0.250000       1.00800           0
     16097 MEMB     141      SLPC     H14B     HL       0.250000       1.00800           0
     16098 MEMB     141      SLPC     H14C     HL       0.250000       1.00800           0
     16099 MEMB     141      SLPC     C15      CTL5    -0.350000       12.0110           0
     16100 MEMB     141      SLPC     H15A     HL       0.250000       1.00800           0
     16101 MEMB     141      SLPC     H15B     HL       0.250000       1.00800           0
     16102 MEMB     141      SLPC     H15C     HL       0.250000       1.00800           0
     16103 MEMB     141      SLPC     C12      CTL2    -0.100000       12.0110           0
     16104 MEMB     141      SLPC     H12A     HL       0.250000       1.00800           0
     16105 MEMB     141      SLPC     H12B     HL       0.250000       1.00800           0
     16106 MEMB     141      SLPC     C11      CTL2    -0.800000E-01   12.0110           0
     16107 MEMB     141      SLPC     H11A     HAL2     0.900000E-01   1.00800           0
     16108 MEMB     141      SLPC     H11B     HAL2     0.900000E-01   1.00800           0
     16109 MEMB     141      SLPC     P        PL        1.50000       30.9740           0
     16110 MEMB     141      SLPC     O13      O2L     -0.780000       15.9994           0
     16111 MEMB     141      SLPC     O14      O2L     -0.780000       15.9994           0
     16112 MEMB     141      SLPC     O12      OSLP    -0.570000       15.9994           0
     16113 MEMB     141      SLPC     O11      OSLP    -0.570000       15.9994           0
     16114 MEMB     141      SLPC     C1       CTL2    -0.800000E-01   12.0110           0
     16115 MEMB     141      SLPC     HA       HAL2     0.900000E-01   1.00800           0
     16116 MEMB     141      SLPC     HB       HAL2     0.900000E-01   1.00800           0
     16117 MEMB     141      SLPC     C2       CTL1     0.170000       12.0110           0
     16118 MEMB     141      SLPC     HS       HAL1     0.900000E-01   1.00800           0
     16119 MEMB     141      SLPC     O21      OSL     -0.490000       15.9994           0
     16120 MEMB     141      SLPC     C21      CL       0.900000       12.0110           0
     16121 MEMB     141      SLPC     O22      OBL     -0.630000       15.9994           0
     16122 MEMB     141      SLPC     C22      CTL2    -0.220000       12.0110           0
     16123 MEMB     141      SLPC     H2R      HAL2     0.900000E-01   1.00800           0
     16124 MEMB     141      SLPC     H2S      HAL2     0.900000E-01   1.00800           0
     16125 MEMB     141      SLPC     C3       CTL2     0.800000E-01   12.0110           0
     16126 MEMB     141      SLPC     HX       HAL2     0.900000E-01   1.00800           0
     16127 MEMB     141      SLPC     HY       HAL2     0.900000E-01   1.00800           0
     16128 MEMB     141      SLPC     O31      OSL     -0.490000       15.9994           0
     16129 MEMB     141      SLPC     C31      CL       0.900000       12.0110           0
     16130 MEMB     141      SLPC     O32      OBL     -0.630000       15.9994           0
     16131 MEMB     141      SLPC     C32      CTL2    -0.220000       12.0110           0
     16132 MEMB     141      SLPC     H2X      HAL2     0.900000E-01   1.00800           0
     16133 MEMB     141      SLPC     H2Y      HAL2     0.900000E-01   1.00800           0
     16134 MEMB     141      SLPC     C23      CTL2    -0.180000       12.0110           0
     16135 MEMB     141      SLPC     H3R      HAL2     0.900000E-01   1.00800           0
     16136 MEMB     141      SLPC     H3S      HAL2     0.900000E-01   1.00800           0
     16137 MEMB     141      SLPC     C24      CTL2    -0.180000       12.0110           0
     16138 MEMB     141      SLPC     H4R      HAL2     0.900000E-01   1.00800           0
     16139 MEMB     141      SLPC     H4S      HAL2     0.900000E-01   1.00800           0
     16140 MEMB     141      SLPC     C25      CTL2    -0.180000       12.0110           0
     16141 MEMB     141      SLPC     H5R      HAL2     0.900000E-01   1.00800           0
     16142 MEMB     141      SLPC     H5S      HAL2     0.900000E-01   1.00800           0
     16143 MEMB     141      SLPC     C26      CTL2    -0.180000       12.0110           0
     16144 MEMB     141      SLPC     H6R      HAL2     0.900000E-01   1.00800           0
     16145 MEMB     141      SLPC     H6S      HAL2     0.900000E-01   1.00800           0
     16146 MEMB     141      SLPC     C27      CTL2    -0.180000       12.0110           0
     16147 MEMB     141      SLPC     H7R      HAL2     0.900000E-01   1.00800           0
     16148 MEMB     141      SLPC     H7S      HAL2     0.900000E-01   1.00800           0
     16149 MEMB     141      SLPC     C28      CTL2    -0.180000       12.0110           0
     16150 MEMB     141      SLPC     H8R      HAL2     0.900000E-01   1.00800           0
     16151 MEMB     141      SLPC     H8S      HAL2     0.900000E-01   1.00800           0
     16152 MEMB     141      SLPC     C29      CEL1    -0.150000       12.0110           0
     16153 MEMB     141      SLPC     H9R      HEL1     0.150000       1.00800           0
     16154 MEMB     141      SLPC     C210     CEL1    -0.150000       12.0110           0
     16155 MEMB     141      SLPC     H10R     HEL1     0.150000       1.00800           0
     16156 MEMB     141      SLPC     C211     CTL2    -0.180000       12.0110           0
     16157 MEMB     141      SLPC     H11R     HAL2     0.900000E-01   1.00800           0
     16158 MEMB     141      SLPC     H11S     HAL2     0.900000E-01   1.00800           0
     16159 MEMB     141      SLPC     C212     CEL1    -0.150000       12.0110           0
     16160 MEMB     141      SLPC     H12R     HEL1     0.150000       1.00800           0
     16161 MEMB     141      SLPC     C213     CEL1    -0.150000       12.0110           0
     16162 MEMB     141      SLPC     H13R     HEL1     0.150000       1.00800           0
     16163 MEMB     141      SLPC     C214     CTL2    -0.180000       12.0110           0
     16164 MEMB     141      SLPC     H14R     HAL2     0.900000E-01   1.00800           0
     16165 MEMB     141      SLPC     H14S     HAL2     0.900000E-01   1.00800           0
     16166 MEMB     141      SLPC     C215     CTL2    -0.180000       12.0110           0
     16167 MEMB     141      SLPC     H15R     HAL2     0.900000E-01   1.00800           0
     16168 MEMB     141      SLPC     H15S     HAL2     0.900000E-01   1.00800           0
     16169 MEMB     141      SLPC     C216     CTL2    -0.180000       12.0110           0
     16170 MEMB     141      SLPC     H16R     HAL2     0.900000E-01   1.00800           0
     16171 MEMB     141      SLPC     H16S     HAL2     0.900000E-01   1.00800           0
     16172 MEMB     141      SLPC     C217     CTL2    -0.180000       12.0110           0
     16173 MEMB     141      SLPC     H17R     HAL2     0.900000E-01   1.00800           0
     16174 MEMB     141      SLPC     H17S     HAL2     0.900000E-01   1.00800           0
     16175 MEMB     141      SLPC     C218     CTL3    -0.270000       12.0110           0
     16176 MEMB     141      SLPC     H18R     HAL3     0.900000E-01   1.00800           0
     16177 MEMB     141      SLPC     H18S     HAL3     0.900000E-01   1.00800           0
     16178 MEMB     141      SLPC     H18T     HAL3     0.900000E-01   1.00800           0
     16179 MEMB     141      SLPC     C33      CTL2    -0.180000       12.0110           0
     16180 MEMB     141      SLPC     H3X      HAL2     0.900000E-01   1.00800           0
     16181 MEMB     141      SLPC     H3Y      HAL2     0.900000E-01   1.00800           0
     16182 MEMB     141      SLPC     C34      CTL2    -0.180000       12.0110           0
     16183 MEMB     141      SLPC     H4X      HAL2     0.900000E-01   1.00800           0
     16184 MEMB     141      SLPC     H4Y      HAL2     0.900000E-01   1.00800           0
     16185 MEMB     141      SLPC     C35      CTL2    -0.180000       12.0110           0
     16186 MEMB     141      SLPC     H5X      HAL2     0.900000E-01   1.00800           0
     16187 MEMB     141      SLPC     H5Y      HAL2     0.900000E-01   1.00800           0
     16188 MEMB     141      SLPC     C36      CTL2    -0.180000       12.0110           0
     16189 MEMB     141      SLPC     H6X      HAL2     0.900000E-01   1.00800           0
     16190 MEMB     141      SLPC     H6Y      HAL2     0.900000E-01   1.00800           0
     16191 MEMB     141      SLPC     C37      CTL2    -0.180000       12.0110           0
     16192 MEMB     141      SLPC     H7X      HAL2     0.900000E-01   1.00800           0
     16193 MEMB     141      SLPC     H7Y      HAL2     0.900000E-01   1.00800           0
     16194 MEMB     141      SLPC     C38      CTL2    -0.180000       12.0110           0
     16195 MEMB     141      SLPC     H8X      HAL2     0.900000E-01   1.00800           0
     16196 MEMB     141      SLPC     H8Y      HAL2     0.900000E-01   1.00800           0
     16197 MEMB     141      SLPC     C39      CTL2    -0.180000       12.0110           0
     16198 MEMB     141      SLPC     H9X      HAL2     0.900000E-01   1.00800           0
     16199 MEMB     141      SLPC     H9Y      HAL2     0.900000E-01   1.00800           0
     16200 MEMB     141      SLPC     C310     CTL2    -0.180000       12.0110           0
     16201 MEMB     141      SLPC     H10X     HAL2     0.900000E-01   1.00800           0
     16202 MEMB     141      SLPC     H10Y     HAL2     0.900000E-01   1.00800           0
     16203 MEMB     141      SLPC     C311     CTL2    -0.180000       12.0110           0
     16204 MEMB     141      SLPC     H11X     HAL2     0.900000E-01   1.00800           0
     16205 MEMB     141      SLPC     H11Y     HAL2     0.900000E-01   1.00800           0
     16206 MEMB     141      SLPC     C312     CTL2    -0.180000       12.0110           0
     16207 MEMB     141      SLPC     H12X     HAL2     0.900000E-01   1.00800           0
     16208 MEMB     141      SLPC     H12Y     HAL2     0.900000E-01   1.00800           0
     16209 MEMB     141      SLPC     C313     CTL2    -0.180000       12.0110           0
     16210 MEMB     141      SLPC     H13X     HAL2     0.900000E-01   1.00800           0
     16211 MEMB     141      SLPC     H13Y     HAL2     0.900000E-01   1.00800           0
     16212 MEMB     141      SLPC     C314     CTL2    -0.180000       12.0110           0
     16213 MEMB     141      SLPC     H14X     HAL2     0.900000E-01   1.00800           0
     16214 MEMB     141      SLPC     H14Y     HAL2     0.900000E-01   1.00800           0
     16215 MEMB     141      SLPC     C315     CTL2    -0.180000       12.0110           0
     16216 MEMB     141      SLPC     H15X     HAL2     0.900000E-01   1.00800           0
     16217 MEMB     141      SLPC     H15Y     HAL2     0.900000E-01   1.00800           0
     16218 MEMB     141      SLPC     C316     CTL2    -0.180000       12.0110           0
     16219 MEMB     141      SLPC     H16X     HAL2     0.900000E-01   1.00800           0
     16220 MEMB     141      SLPC     H16Y     HAL2     0.900000E-01   1.00800           0
     16221 MEMB     141      SLPC     C317     CTL2    -0.180000       12.0110           0
     16222 MEMB     141      SLPC     H17X     HAL2     0.900000E-01   1.00800           0
     16223 MEMB     141      SLPC     H17Y     HAL2     0.900000E-01   1.00800           0
     16224 MEMB     141      SLPC     C318     CTL3    -0.270000       12.0110           0
     16225 MEMB     141      SLPC     H18X     HAL3     0.900000E-01   1.00800           0
     16226 MEMB     141      SLPC     H18Y     HAL3     0.900000E-01   1.00800           0
     16227 MEMB     141      SLPC     H18Z     HAL3     0.900000E-01   1.00800           0
     16228 MEMB     142      OSM      N        NTL     -0.600000       14.0070           0
     16229 MEMB     142      OSM      C15      CTL5    -0.350000       12.0110           0
     16230 MEMB     142      OSM      H15A     HL       0.250000       1.00800           0
     16231 MEMB     142      OSM      H15B     HL       0.250000       1.00800           0
     16232 MEMB     142      OSM      H15C     HL       0.250000       1.00800           0
     16233 MEMB     142      OSM      C14      CTL5    -0.350000       12.0110           0
     16234 MEMB     142      OSM      H14A     HL       0.250000       1.00800           0
     16235 MEMB     142      OSM      H14B     HL       0.250000       1.00800           0
     16236 MEMB     142      OSM      H14C     HL       0.250000       1.00800           0
     16237 MEMB     142      OSM      C13      CTL5    -0.350000       12.0110           0
     16238 MEMB     142      OSM      H13A     HL       0.250000       1.00800           0
     16239 MEMB     142      OSM      H13B     HL       0.250000       1.00800           0
     16240 MEMB     142      OSM      H13C     HL       0.250000       1.00800           0
     16241 MEMB     142      OSM      C12      CTL2    -0.100000       12.0110           0
     16242 MEMB     142      OSM      H12A     HL       0.250000       1.00800           0
     16243 MEMB     142      OSM      H12B     HL       0.250000       1.00800           0
     16244 MEMB     142      OSM      C11      CTL2    -0.800000E-01   12.0110           0
     16245 MEMB     142      OSM      H11A     HAL2     0.900000E-01   1.00800           0
     16246 MEMB     142      OSM      H11B     HAL2     0.900000E-01   1.00800           0
     16247 MEMB     142      OSM      P        PL        1.50000       30.9740           0
     16248 MEMB     142      OSM      O13      O2L     -0.780000       15.9994           0
     16249 MEMB     142      OSM      O14      O2L     -0.780000       15.9994           0
     16250 MEMB     142      OSM      O11      OSLP    -0.570000       15.9994           0
     16251 MEMB     142      OSM      O12      OSLP    -0.570000       15.9994           0
     16252 MEMB     142      OSM      C1S      CTL2    -0.800000E-01   12.0110           0
     16253 MEMB     142      OSM      H1S      HAL2     0.900000E-01   1.00800           0
     16254 MEMB     142      OSM      H1T      HAL2     0.900000E-01   1.00800           0
     16255 MEMB     142      OSM      NF       NHL     -0.700000       14.0070           0
     16256 MEMB     142      OSM      HNF      H        0.350000       1.00800           0
     16257 MEMB     142      OSM      C2S      CTL1     0.300000       12.0110           0
     16258 MEMB     142      OSM      H2S      HAL1     0.500000E-01   1.00800           0
     16259 MEMB     142      OSM      C3S      CTO1     0.500000       12.0110           0
     16260 MEMB     142      OSM      H3S      HAL1    -0.110000       1.00800           0
     16261 MEMB     142      OSM      O3       OHL     -0.690000       15.9994           0
     16262 MEMB     142      OSM      HO3      HOL      0.300000       1.00800           0
     16263 MEMB     142      OSM      C4S      CEL3    -0.150000       12.0110           0
     16264 MEMB     142      OSM      H4S      HEL1     0.150000       1.00800           0
     16265 MEMB     142      OSM      C5S      CEL3    -0.150000       12.0110           0
     16266 MEMB     142      OSM      H5S      HEL1     0.150000       1.00800           0
     16267 MEMB     142      OSM      C6S      CTL2    -0.180000       12.0110           0
     16268 MEMB     142      OSM      H6S      HAL2     0.900000E-01   1.00800           0
     16269 MEMB     142      OSM      H6T      HAL2     0.900000E-01   1.00800           0
     16270 MEMB     142      OSM      C7S      CTL2    -0.180000       12.0110           0
     16271 MEMB     142      OSM      H7S      HAL2     0.900000E-01   1.00800           0
     16272 MEMB     142      OSM      H7T      HAL2     0.900000E-01   1.00800           0
     16273 MEMB     142      OSM      C8S      CTL2    -0.180000       12.0110           0
     16274 MEMB     142      OSM      H8S      HAL2     0.900000E-01   1.00800           0
     16275 MEMB     142      OSM      H8T      HAL2     0.900000E-01   1.00800           0
     16276 MEMB     142      OSM      C9S      CTL2    -0.180000       12.0110           0
     16277 MEMB     142      OSM      H9S      HAL2     0.900000E-01   1.00800           0
     16278 MEMB     142      OSM      H9T      HAL2     0.900000E-01   1.00800           0
     16279 MEMB     142      OSM      C10S     CTL2    -0.180000       12.0110           0
     16280 MEMB     142      OSM      H10S     HAL2     0.900000E-01   1.00800           0
     16281 MEMB     142      OSM      H10T     HAL2     0.900000E-01   1.00800           0
     16282 MEMB     142      OSM      C11S     CTL2    -0.180000       12.0110           0
     16283 MEMB     142      OSM      H11S     HAL2     0.900000E-01   1.00800           0
     16284 MEMB     142      OSM      H11T     HAL2     0.900000E-01   1.00800           0
     16285 MEMB     142      OSM      C12S     CTL2    -0.180000       12.0110           0
     16286 MEMB     142      OSM      H12S     HAL2     0.900000E-01   1.00800           0
     16287 MEMB     142      OSM      H12T     HAL2     0.900000E-01   1.00800           0
     16288 MEMB     142      OSM      C13S     CTL2    -0.180000       12.0110           0
     16289 MEMB     142      OSM      H13S     HAL2     0.900000E-01   1.00800           0
     16290 MEMB     142      OSM      H13T     HAL2     0.900000E-01   1.00800           0
     16291 MEMB     142      OSM      C14S     CTL2    -0.180000       12.0110           0
     16292 MEMB     142      OSM      H14S     HAL2     0.900000E-01   1.00800           0
     16293 MEMB     142      OSM      H14T     HAL2     0.900000E-01   1.00800           0
     16294 MEMB     142      OSM      C15S     CTL2    -0.180000       12.0110           0
     16295 MEMB     142      OSM      H15S     HAL2     0.900000E-01   1.00800           0
     16296 MEMB     142      OSM      H15T     HAL2     0.900000E-01   1.00800           0
     16297 MEMB     142      OSM      C16S     CTL2    -0.180000       12.0110           0
     16298 MEMB     142      OSM      H16S     HAL2     0.900000E-01   1.00800           0
     16299 MEMB     142      OSM      H16T     HAL2     0.900000E-01   1.00800           0
     16300 MEMB     142      OSM      C17S     CTL2    -0.180000       12.0110           0
     16301 MEMB     142      OSM      H17S     HAL2     0.900000E-01   1.00800           0
     16302 MEMB     142      OSM      H17T     HAL2     0.900000E-01   1.00800           0
     16303 MEMB     142      OSM      C18S     CTL3    -0.270000       12.0110           0
     16304 MEMB     142      OSM      H18S     HAL3     0.900000E-01   1.00800           0
     16305 MEMB     142      OSM      H18T     HAL3     0.900000E-01   1.00800           0
     16306 MEMB     142      OSM      H18U     HAL3     0.900000E-01   1.00800           0
     16307 MEMB     142      OSM      C1F      C        0.550000       12.0110           0
     16308 MEMB     142      OSM      OF       O       -0.600000       15.9994           0
     16309 MEMB     142      OSM      C2F      CTL2    -0.700000E-01   12.0110           0
     16310 MEMB     142      OSM      H2F      HAL2     0.600000E-01   1.00800           0
     16311 MEMB     142      OSM      H2G      HAL2     0.600000E-01   1.00800           0
     16312 MEMB     142      OSM      C3F      CTL2    -0.180000       12.0110           0
     16313 MEMB     142      OSM      H3F      HAL2     0.900000E-01   1.00800           0
     16314 MEMB     142      OSM      H3G      HAL2     0.900000E-01   1.00800           0
     16315 MEMB     142      OSM      C4F      CTL2    -0.180000       12.0110           0
     16316 MEMB     142      OSM      H4F      HAL2     0.900000E-01   1.00800           0
     16317 MEMB     142      OSM      H4G      HAL2     0.900000E-01   1.00800           0
     16318 MEMB     142      OSM      C5F      CTL2    -0.180000       12.0110           0
     16319 MEMB     142      OSM      H5F      HAL2     0.900000E-01   1.00800           0
     16320 MEMB     142      OSM      H5G      HAL2     0.900000E-01   1.00800           0
     16321 MEMB     142      OSM      C6F      CTL2    -0.180000       12.0110           0
     16322 MEMB     142      OSM      H6F      HAL2     0.900000E-01   1.00800           0
     16323 MEMB     142      OSM      H6G      HAL2     0.900000E-01   1.00800           0
     16324 MEMB     142      OSM      C7F      CTL2    -0.180000       12.0110           0
     16325 MEMB     142      OSM      H7F      HAL2     0.900000E-01   1.00800           0
     16326 MEMB     142      OSM      H7G      HAL2     0.900000E-01   1.00800           0
     16327 MEMB     142      OSM      C8F      CTL2    -0.180000       12.0110           0
     16328 MEMB     142      OSM      H8F      HAL2     0.900000E-01   1.00800           0
     16329 MEMB     142      OSM      H8G      HAL2     0.900000E-01   1.00800           0
     16330 MEMB     142      OSM      C9F      CEL1    -0.150000       12.0110           0
     16331 MEMB     142      OSM      H9F      HEL1     0.150000       1.00800           0
     16332 MEMB     142      OSM      C10F     CEL1    -0.150000       12.0110           0
     16333 MEMB     142      OSM      H10F     HEL1     0.150000       1.00800           0
     16334 MEMB     142      OSM      C11F     CTL2    -0.180000       12.0110           0
     16335 MEMB     142      OSM      H11F     HAL2     0.900000E-01   1.00800           0
     16336 MEMB     142      OSM      H11G     HAL2     0.900000E-01   1.00800           0
     16337 MEMB     142      OSM      C12F     CTL2    -0.180000       12.0110           0
     16338 MEMB     142      OSM      H12F     HAL2     0.900000E-01   1.00800           0
     16339 MEMB     142      OSM      H12G     HAL2     0.900000E-01   1.00800           0
     16340 MEMB     142      OSM      C13F     CTL2    -0.180000       12.0110           0
     16341 MEMB     142      OSM      H13F     HAL2     0.900000E-01   1.00800           0
     16342 MEMB     142      OSM      H13G     HAL2     0.900000E-01   1.00800           0
     16343 MEMB     142      OSM      C14F     CTL2    -0.180000       12.0110           0
     16344 MEMB     142      OSM      H14F     HAL2     0.900000E-01   1.00800           0
     16345 MEMB     142      OSM      H14G     HAL2     0.900000E-01   1.00800           0
     16346 MEMB     142      OSM      C15F     CTL2    -0.180000       12.0110           0
     16347 MEMB     142      OSM      H15F     HAL2     0.900000E-01   1.00800           0
     16348 MEMB     142      OSM      H15G     HAL2     0.900000E-01   1.00800           0
     16349 MEMB     142      OSM      C16F     CTL2    -0.180000       12.0110           0
     16350 MEMB     142      OSM      H16F     HAL2     0.900000E-01   1.00800           0
     16351 MEMB     142      OSM      H16G     HAL2     0.900000E-01   1.00800           0
     16352 MEMB     142      OSM      C17F     CTL2    -0.180000       12.0110           0
     16353 MEMB     142      OSM      H17F     HAL2     0.900000E-01   1.00800           0
     16354 MEMB     142      OSM      H17G     HAL2     0.900000E-01   1.00800           0
     16355 MEMB     142      OSM      C18F     CTL3    -0.270000       12.0110           0
     16356 MEMB     142      OSM      H18F     HAL3     0.900000E-01   1.00800           0
     16357 MEMB     142      OSM      H18G     HAL3     0.900000E-01   1.00800           0
     16358 MEMB     142      OSM      H18H     HAL3     0.900000E-01   1.00800           0
     16359 MEMB     143      SAPS     N        NH3L    -0.300000       14.0070           0
     16360 MEMB     143      SAPS     HN1      HCL      0.330000       1.00800           0
     16361 MEMB     143      SAPS     HN2      HCL      0.330000       1.00800           0
     16362 MEMB     143      SAPS     HN3      HCL      0.330000       1.00800           0
     16363 MEMB     143      SAPS     C12      CTL1     0.210000       12.0110           0
     16364 MEMB     143      SAPS     H12A     HBL      0.100000       1.00800           0
     16365 MEMB     143      SAPS     C13      CCL      0.340000       12.0110           0
     16366 MEMB     143      SAPS     O13A     OCL     -0.670000       15.9994           0
     16367 MEMB     143      SAPS     O13B     OCL     -0.670000       15.9994           0
     16368 MEMB     143      SAPS     C11      CTL2    -0.800000E-01   12.0110           0
     16369 MEMB     143      SAPS     H11A     HAL2     0.900000E-01   1.00800           0
     16370 MEMB     143      SAPS     H11B     HAL2     0.900000E-01   1.00800           0
     16371 MEMB     143      SAPS     P        PL        1.50000       30.9740           0
     16372 MEMB     143      SAPS     O13      O2L     -0.780000       15.9994           0
     16373 MEMB     143      SAPS     O14      O2L     -0.780000       15.9994           0
     16374 MEMB     143      SAPS     O12      OSLP    -0.570000       15.9994           0
     16375 MEMB     143      SAPS     O11      OSLP    -0.570000       15.9994           0
     16376 MEMB     143      SAPS     C1       CTL2    -0.800000E-01   12.0110           0
     16377 MEMB     143      SAPS     HA       HAL2     0.900000E-01   1.00800           0
     16378 MEMB     143      SAPS     HB       HAL2     0.900000E-01   1.00800           0
     16379 MEMB     143      SAPS     C2       CTL1     0.170000       12.0110           0
     16380 MEMB     143      SAPS     HS       HAL1     0.900000E-01   1.00800           0
     16381 MEMB     143      SAPS     O21      OSL     -0.490000       15.9994           0
     16382 MEMB     143      SAPS     C21      CL       0.900000       12.0110           0
     16383 MEMB     143      SAPS     O22      OBL     -0.630000       15.9994           0
     16384 MEMB     143      SAPS     C22      CTL2    -0.220000       12.0110           0
     16385 MEMB     143      SAPS     H2R      HAL2     0.900000E-01   1.00800           0
     16386 MEMB     143      SAPS     H2S      HAL2     0.900000E-01   1.00800           0
     16387 MEMB     143      SAPS     C3       CTL2     0.800000E-01   12.0110           0
     16388 MEMB     143      SAPS     HX       HAL2     0.900000E-01   1.00800           0
     16389 MEMB     143      SAPS     HY       HAL2     0.900000E-01   1.00800           0
     16390 MEMB     143      SAPS     O31      OSL     -0.490000       15.9994           0
     16391 MEMB     143      SAPS     C31      CL       0.900000       12.0110           0
     16392 MEMB     143      SAPS     O32      OBL     -0.630000       15.9994           0
     16393 MEMB     143      SAPS     C32      CTL2    -0.220000       12.0110           0
     16394 MEMB     143      SAPS     H2X      HAL2     0.900000E-01   1.00800           0
     16395 MEMB     143      SAPS     H2Y      HAL2     0.900000E-01   1.00800           0
     16396 MEMB     143      SAPS     C23      CTL2    -0.180000       12.0110           0
     16397 MEMB     143      SAPS     H3R      HAL2     0.900000E-01   1.00800           0
     16398 MEMB     143      SAPS     H3S      HAL2     0.900000E-01   1.00800           0
     16399 MEMB     143      SAPS     C24      CTL2    -0.180000       12.0110           0
     16400 MEMB     143      SAPS     H4R      HAL2     0.900000E-01   1.00800           0
     16401 MEMB     143      SAPS     H4S      HAL2     0.900000E-01   1.00800           0
     16402 MEMB     143      SAPS     C25      CEL1    -0.150000       12.0110           0
     16403 MEMB     143      SAPS     H5R      HEL1     0.150000       1.00800           0
     16404 MEMB     143      SAPS     C26      CEL1    -0.150000       12.0110           0
     16405 MEMB     143      SAPS     H6R      HEL1     0.150000       1.00800           0
     16406 MEMB     143      SAPS     C27      CTL2    -0.180000       12.0110           0
     16407 MEMB     143      SAPS     H7R      HAL2     0.900000E-01   1.00800           0
     16408 MEMB     143      SAPS     H7S      HAL2     0.900000E-01   1.00800           0
     16409 MEMB     143      SAPS     C28      CEL1    -0.150000       12.0110           0
     16410 MEMB     143      SAPS     H8R      HEL1     0.150000       1.00800           0
     16411 MEMB     143      SAPS     C29      CEL1    -0.150000       12.0110           0
     16412 MEMB     143      SAPS     H9R      HEL1     0.150000       1.00800           0
     16413 MEMB     143      SAPS     C210     CTL2    -0.180000       12.0110           0
     16414 MEMB     143      SAPS     H10R     HAL2     0.900000E-01   1.00800           0
     16415 MEMB     143      SAPS     H10S     HAL2     0.900000E-01   1.00800           0
     16416 MEMB     143      SAPS     C211     CEL1    -0.150000       12.0110           0
     16417 MEMB     143      SAPS     H11R     HEL1     0.150000       1.00800           0
     16418 MEMB     143      SAPS     C212     CEL1    -0.150000       12.0110           0
     16419 MEMB     143      SAPS     H12R     HEL1     0.150000       1.00800           0
     16420 MEMB     143      SAPS     C213     CTL2    -0.180000       12.0110           0
     16421 MEMB     143      SAPS     H13R     HAL2     0.900000E-01   1.00800           0
     16422 MEMB     143      SAPS     H13S     HAL2     0.900000E-01   1.00800           0
     16423 MEMB     143      SAPS     C214     CEL1    -0.150000       12.0110           0
     16424 MEMB     143      SAPS     H14R     HEL1     0.150000       1.00800           0
     16425 MEMB     143      SAPS     C215     CEL1    -0.150000       12.0110           0
     16426 MEMB     143      SAPS     H15R     HEL1     0.150000       1.00800           0
     16427 MEMB     143      SAPS     C216     CTL2    -0.180000       12.0110           0
     16428 MEMB     143      SAPS     H16R     HAL2     0.900000E-01   1.00800           0
     16429 MEMB     143      SAPS     H16S     HAL2     0.900000E-01   1.00800           0
     16430 MEMB     143      SAPS     C217     CTL2    -0.180000       12.0110           0
     16431 MEMB     143      SAPS     H17R     HAL2     0.900000E-01   1.00800           0
     16432 MEMB     143      SAPS     H17S     HAL2     0.900000E-01   1.00800           0
     16433 MEMB     143      SAPS     C218     CTL2    -0.180000       12.0110           0
     16434 MEMB     143      SAPS     H18R     HAL2     0.900000E-01   1.00800           0
     16435 MEMB     143      SAPS     H18S     HAL2     0.900000E-01   1.00800           0
     16436 MEMB     143      SAPS     C219     CTL2    -0.180000       12.0110           0
     16437 MEMB     143      SAPS     H19R     HAL2     0.900000E-01   1.00800           0
     16438 MEMB     143      SAPS     H19S     HAL2     0.900000E-01   1.00800           0
     16439 MEMB     143      SAPS     C220     CTL3    -0.270000       12.0110           0
     16440 MEMB     143      SAPS     H20R     HAL3     0.900000E-01   1.00800           0
     16441 MEMB     143      SAPS     H20S     HAL3     0.900000E-01   1.00800           0
     16442 MEMB     143      SAPS     H20T     HAL3     0.900000E-01   1.00800           0
     16443 MEMB     143      SAPS     C33      CTL2    -0.180000       12.0110           0
     16444 MEMB     143      SAPS     H3X      HAL2     0.900000E-01   1.00800           0
     16445 MEMB     143      SAPS     H3Y      HAL2     0.900000E-01   1.00800           0
     16446 MEMB     143      SAPS     C34      CTL2    -0.180000       12.0110           0
     16447 MEMB     143      SAPS     H4X      HAL2     0.900000E-01   1.00800           0
     16448 MEMB     143      SAPS     H4Y      HAL2     0.900000E-01   1.00800           0
     16449 MEMB     143      SAPS     C35      CTL2    -0.180000       12.0110           0
     16450 MEMB     143      SAPS     H5X      HAL2     0.900000E-01   1.00800           0
     16451 MEMB     143      SAPS     H5Y      HAL2     0.900000E-01   1.00800           0
     16452 MEMB     143      SAPS     C36      CTL2    -0.180000       12.0110           0
     16453 MEMB     143      SAPS     H6X      HAL2     0.900000E-01   1.00800           0
     16454 MEMB     143      SAPS     H6Y      HAL2     0.900000E-01   1.00800           0
     16455 MEMB     143      SAPS     C37      CTL2    -0.180000       12.0110           0
     16456 MEMB     143      SAPS     H7X      HAL2     0.900000E-01   1.00800           0
     16457 MEMB     143      SAPS     H7Y      HAL2     0.900000E-01   1.00800           0
     16458 MEMB     143      SAPS     C38      CTL2    -0.180000       12.0110           0
     16459 MEMB     143      SAPS     H8X      HAL2     0.900000E-01   1.00800           0
     16460 MEMB     143      SAPS     H8Y      HAL2     0.900000E-01   1.00800           0
     16461 MEMB     143      SAPS     C39      CTL2    -0.180000       12.0110           0
     16462 MEMB     143      SAPS     H9X      HAL2     0.900000E-01   1.00800           0
     16463 MEMB     143      SAPS     H9Y      HAL2     0.900000E-01   1.00800           0
     16464 MEMB     143      SAPS     C310     CTL2    -0.180000       12.0110           0
     16465 MEMB     143      SAPS     H10X     HAL2     0.900000E-01   1.00800           0
     16466 MEMB     143      SAPS     H10Y     HAL2     0.900000E-01   1.00800           0
     16467 MEMB     143      SAPS     C311     CTL2    -0.180000       12.0110           0
     16468 MEMB     143      SAPS     H11X     HAL2     0.900000E-01   1.00800           0
     16469 MEMB     143      SAPS     H11Y     HAL2     0.900000E-01   1.00800           0
     16470 MEMB     143      SAPS     C312     CTL2    -0.180000       12.0110           0
     16471 MEMB     143      SAPS     H12X     HAL2     0.900000E-01   1.00800           0
     16472 MEMB     143      SAPS     H12Y     HAL2     0.900000E-01   1.00800           0
     16473 MEMB     143      SAPS     C313     CTL2    -0.180000       12.0110           0
     16474 MEMB     143      SAPS     H13X     HAL2     0.900000E-01   1.00800           0
     16475 MEMB     143      SAPS     H13Y     HAL2     0.900000E-01   1.00800           0
     16476 MEMB     143      SAPS     C314     CTL2    -0.180000       12.0110           0
     16477 MEMB     143      SAPS     H14X     HAL2     0.900000E-01   1.00800           0
     16478 MEMB     143      SAPS     H14Y     HAL2     0.900000E-01   1.00800           0
     16479 MEMB     143      SAPS     C315     CTL2    -0.180000       12.0110           0
     16480 MEMB     143      SAPS     H15X     HAL2     0.900000E-01   1.00800           0
     16481 MEMB     143      SAPS     H15Y     HAL2     0.900000E-01   1.00800           0
     16482 MEMB     143      SAPS     C316     CTL2    -0.180000       12.0110           0
     16483 MEMB     143      SAPS     H16X     HAL2     0.900000E-01   1.00800           0
     16484 MEMB     143      SAPS     H16Y     HAL2     0.900000E-01   1.00800           0
     16485 MEMB     143      SAPS     C317     CTL2    -0.180000       12.0110           0
     16486 MEMB     143      SAPS     H17X     HAL2     0.900000E-01   1.00800           0
     16487 MEMB     143      SAPS     H17Y     HAL2     0.900000E-01   1.00800           0
     16488 MEMB     143      SAPS     C318     CTL3    -0.270000       12.0110           0
     16489 MEMB     143      SAPS     H18X     HAL3     0.900000E-01   1.00800           0
     16490 MEMB     143      SAPS     H18Y     HAL3     0.900000E-01   1.00800           0
     16491 MEMB     143      SAPS     H18Z     HAL3     0.900000E-01   1.00800           0
     16492 MEMB     144      SLPC     N        NTL     -0.600000       14.0070           0
     16493 MEMB     144      SLPC     C13      CTL5    -0.350000       12.0110           0
     16494 MEMB     144      SLPC     H13A     HL       0.250000       1.00800           0
     16495 MEMB     144      SLPC     H13B     HL       0.250000       1.00800           0
     16496 MEMB     144      SLPC     H13C     HL       0.250000       1.00800           0
     16497 MEMB     144      SLPC     C14      CTL5    -0.350000       12.0110           0
     16498 MEMB     144      SLPC     H14A     HL       0.250000       1.00800           0
     16499 MEMB     144      SLPC     H14B     HL       0.250000       1.00800           0
     16500 MEMB     144      SLPC     H14C     HL       0.250000       1.00800           0
     16501 MEMB     144      SLPC     C15      CTL5    -0.350000       12.0110           0
     16502 MEMB     144      SLPC     H15A     HL       0.250000       1.00800           0
     16503 MEMB     144      SLPC     H15B     HL       0.250000       1.00800           0
     16504 MEMB     144      SLPC     H15C     HL       0.250000       1.00800           0
     16505 MEMB     144      SLPC     C12      CTL2    -0.100000       12.0110           0
     16506 MEMB     144      SLPC     H12A     HL       0.250000       1.00800           0
     16507 MEMB     144      SLPC     H12B     HL       0.250000       1.00800           0
     16508 MEMB     144      SLPC     C11      CTL2    -0.800000E-01   12.0110           0
     16509 MEMB     144      SLPC     H11A     HAL2     0.900000E-01   1.00800           0
     16510 MEMB     144      SLPC     H11B     HAL2     0.900000E-01   1.00800           0
     16511 MEMB     144      SLPC     P        PL        1.50000       30.9740           0
     16512 MEMB     144      SLPC     O13      O2L     -0.780000       15.9994           0
     16513 MEMB     144      SLPC     O14      O2L     -0.780000       15.9994           0
     16514 MEMB     144      SLPC     O12      OSLP    -0.570000       15.9994           0
     16515 MEMB     144      SLPC     O11      OSLP    -0.570000       15.9994           0
     16516 MEMB     144      SLPC     C1       CTL2    -0.800000E-01   12.0110           0
     16517 MEMB     144      SLPC     HA       HAL2     0.900000E-01   1.00800           0
     16518 MEMB     144      SLPC     HB       HAL2     0.900000E-01   1.00800           0
     16519 MEMB     144      SLPC     C2       CTL1     0.170000       12.0110           0
     16520 MEMB     144      SLPC     HS       HAL1     0.900000E-01   1.00800           0
     16521 MEMB     144      SLPC     O21      OSL     -0.490000       15.9994           0
     16522 MEMB     144      SLPC     C21      CL       0.900000       12.0110           0
     16523 MEMB     144      SLPC     O22      OBL     -0.630000       15.9994           0
     16524 MEMB     144      SLPC     C22      CTL2    -0.220000       12.0110           0
     16525 MEMB     144      SLPC     H2R      HAL2     0.900000E-01   1.00800           0
     16526 MEMB     144      SLPC     H2S      HAL2     0.900000E-01   1.00800           0
     16527 MEMB     144      SLPC     C3       CTL2     0.800000E-01   12.0110           0
     16528 MEMB     144      SLPC     HX       HAL2     0.900000E-01   1.00800           0
     16529 MEMB     144      SLPC     HY       HAL2     0.900000E-01   1.00800           0
     16530 MEMB     144      SLPC     O31      OSL     -0.490000       15.9994           0
     16531 MEMB     144      SLPC     C31      CL       0.900000       12.0110           0
     16532 MEMB     144      SLPC     O32      OBL     -0.630000       15.9994           0
     16533 MEMB     144      SLPC     C32      CTL2    -0.220000       12.0110           0
     16534 MEMB     144      SLPC     H2X      HAL2     0.900000E-01   1.00800           0
     16535 MEMB     144      SLPC     H2Y      HAL2     0.900000E-01   1.00800           0
     16536 MEMB     144      SLPC     C23      CTL2    -0.180000       12.0110           0
     16537 MEMB     144      SLPC     H3R      HAL2     0.900000E-01   1.00800           0
     16538 MEMB     144      SLPC     H3S      HAL2     0.900000E-01   1.00800           0
     16539 MEMB     144      SLPC     C24      CTL2    -0.180000       12.0110           0
     16540 MEMB     144      SLPC     H4R      HAL2     0.900000E-01   1.00800           0
     16541 MEMB     144      SLPC     H4S      HAL2     0.900000E-01   1.00800           0
     16542 MEMB     144      SLPC     C25      CTL2    -0.180000       12.0110           0
     16543 MEMB     144      SLPC     H5R      HAL2     0.900000E-01   1.00800           0
     16544 MEMB     144      SLPC     H5S      HAL2     0.900000E-01   1.00800           0
     16545 MEMB     144      SLPC     C26      CTL2    -0.180000       12.0110           0
     16546 MEMB     144      SLPC     H6R      HAL2     0.900000E-01   1.00800           0
     16547 MEMB     144      SLPC     H6S      HAL2     0.900000E-01   1.00800           0
     16548 MEMB     144      SLPC     C27      CTL2    -0.180000       12.0110           0
     16549 MEMB     144      SLPC     H7R      HAL2     0.900000E-01   1.00800           0
     16550 MEMB     144      SLPC     H7S      HAL2     0.900000E-01   1.00800           0
     16551 MEMB     144      SLPC     C28      CTL2    -0.180000       12.0110           0
     16552 MEMB     144      SLPC     H8R      HAL2     0.900000E-01   1.00800           0
     16553 MEMB     144      SLPC     H8S      HAL2     0.900000E-01   1.00800           0
     16554 MEMB     144      SLPC     C29      CEL1    -0.150000       12.0110           0
     16555 MEMB     144      SLPC     H9R      HEL1     0.150000       1.00800           0
     16556 MEMB     144      SLPC     C210     CEL1    -0.150000       12.0110           0
     16557 MEMB     144      SLPC     H10R     HEL1     0.150000       1.00800           0
     16558 MEMB     144      SLPC     C211     CTL2    -0.180000       12.0110           0
     16559 MEMB     144      SLPC     H11R     HAL2     0.900000E-01   1.00800           0
     16560 MEMB     144      SLPC     H11S     HAL2     0.900000E-01   1.00800           0
     16561 MEMB     144      SLPC     C212     CEL1    -0.150000       12.0110           0
     16562 MEMB     144      SLPC     H12R     HEL1     0.150000       1.00800           0
     16563 MEMB     144      SLPC     C213     CEL1    -0.150000       12.0110           0
     16564 MEMB     144      SLPC     H13R     HEL1     0.150000       1.00800           0
     16565 MEMB     144      SLPC     C214     CTL2    -0.180000       12.0110           0
     16566 MEMB     144      SLPC     H14R     HAL2     0.900000E-01   1.00800           0
     16567 MEMB     144      SLPC     H14S     HAL2     0.900000E-01   1.00800           0
     16568 MEMB     144      SLPC     C215     CTL2    -0.180000       12.0110           0
     16569 MEMB     144      SLPC     H15R     HAL2     0.900000E-01   1.00800           0
     16570 MEMB     144      SLPC     H15S     HAL2     0.900000E-01   1.00800           0
     16571 MEMB     144      SLPC     C216     CTL2    -0.180000       12.0110           0
     16572 MEMB     144      SLPC     H16R     HAL2     0.900000E-01   1.00800           0
     16573 MEMB     144      SLPC     H16S     HAL2     0.900000E-01   1.00800           0
     16574 MEMB     144      SLPC     C217     CTL2    -0.180000       12.0110           0
     16575 MEMB     144      SLPC     H17R     HAL2     0.900000E-01   1.00800           0
     16576 MEMB     144      SLPC     H17S     HAL2     0.900000E-01   1.00800           0
     16577 MEMB     144      SLPC     C218     CTL3    -0.270000       12.0110           0
     16578 MEMB     144      SLPC     H18R     HAL3     0.900000E-01   1.00800           0
     16579 MEMB     144      SLPC     H18S     HAL3     0.900000E-01   1.00800           0
     16580 MEMB     144      SLPC     H18T     HAL3     0.900000E-01   1.00800           0
     16581 MEMB     144      SLPC     C33      CTL2    -0.180000       12.0110           0
     16582 MEMB     144      SLPC     H3X      HAL2     0.900000E-01   1.00800           0
     16583 MEMB     144      SLPC     H3Y      HAL2     0.900000E-01   1.00800           0
     16584 MEMB     144      SLPC     C34      CTL2    -0.180000       12.0110           0
     16585 MEMB     144      SLPC     H4X      HAL2     0.900000E-01   1.00800           0
     16586 MEMB     144      SLPC     H4Y      HAL2     0.900000E-01   1.00800           0
     16587 MEMB     144      SLPC     C35      CTL2    -0.180000       12.0110           0
     16588 MEMB     144      SLPC     H5X      HAL2     0.900000E-01   1.00800           0
     16589 MEMB     144      SLPC     H5Y      HAL2     0.900000E-01   1.00800           0
     16590 MEMB     144      SLPC     C36      CTL2    -0.180000       12.0110           0
     16591 MEMB     144      SLPC     H6X      HAL2     0.900000E-01   1.00800           0
     16592 MEMB     144      SLPC     H6Y      HAL2     0.900000E-01   1.00800           0
     16593 MEMB     144      SLPC     C37      CTL2    -0.180000       12.0110           0
     16594 MEMB     144      SLPC     H7X      HAL2     0.900000E-01   1.00800           0
     16595 MEMB     144      SLPC     H7Y      HAL2     0.900000E-01   1.00800           0
     16596 MEMB     144      SLPC     C38      CTL2    -0.180000       12.0110           0
     16597 MEMB     144      SLPC     H8X      HAL2     0.900000E-01   1.00800           0
     16598 MEMB     144      SLPC     H8Y      HAL2     0.900000E-01   1.00800           0
     16599 MEMB     144      SLPC     C39      CTL2    -0.180000       12.0110           0
     16600 MEMB     144      SLPC     H9X      HAL2     0.900000E-01   1.00800           0
     16601 MEMB     144      SLPC     H9Y      HAL2     0.900000E-01   1.00800           0
     16602 MEMB     144      SLPC     C310     CTL2    -0.180000       12.0110           0
     16603 MEMB     144      SLPC     H10X     HAL2     0.900000E-01   1.00800           0
     16604 MEMB     144      SLPC     H10Y     HAL2     0.900000E-01   1.00800           0
     16605 MEMB     144      SLPC     C311     CTL2    -0.180000       12.0110           0
     16606 MEMB     144      SLPC     H11X     HAL2     0.900000E-01   1.00800           0
     16607 MEMB     144      SLPC     H11Y     HAL2     0.900000E-01   1.00800           0
     16608 MEMB     144      SLPC     C312     CTL2    -0.180000       12.0110           0
     16609 MEMB     144      SLPC     H12X     HAL2     0.900000E-01   1.00800           0
     16610 MEMB     144      SLPC     H12Y     HAL2     0.900000E-01   1.00800           0
     16611 MEMB     144      SLPC     C313     CTL2    -0.180000       12.0110           0
     16612 MEMB     144      SLPC     H13X     HAL2     0.900000E-01   1.00800           0
     16613 MEMB     144      SLPC     H13Y     HAL2     0.900000E-01   1.00800           0
     16614 MEMB     144      SLPC     C314     CTL2    -0.180000       12.0110           0
     16615 MEMB     144      SLPC     H14X     HAL2     0.900000E-01   1.00800           0
     16616 MEMB     144      SLPC     H14Y     HAL2     0.900000E-01   1.00800           0
     16617 MEMB     144      SLPC     C315     CTL2    -0.180000       12.0110           0
     16618 MEMB     144      SLPC     H15X     HAL2     0.900000E-01   1.00800           0
     16619 MEMB     144      SLPC     H15Y     HAL2     0.900000E-01   1.00800           0
     16620 MEMB     144      SLPC     C316     CTL2    -0.180000       12.0110           0
     16621 MEMB     144      SLPC     H16X     HAL2     0.900000E-01   1.00800           0
     16622 MEMB     144      SLPC     H16Y     HAL2     0.900000E-01   1.00800           0
     16623 MEMB     144      SLPC     C317     CTL2    -0.180000       12.0110           0
     16624 MEMB     144      SLPC     H17X     HAL2     0.900000E-01   1.00800           0
     16625 MEMB     144      SLPC     H17Y     HAL2     0.900000E-01   1.00800           0
     16626 MEMB     144      SLPC     C318     CTL3    -0.270000       12.0110           0
     16627 MEMB     144      SLPC     H18X     HAL3     0.900000E-01   1.00800           0
     16628 MEMB     144      SLPC     H18Y     HAL3     0.900000E-01   1.00800           0
     16629 MEMB     144      SLPC     H18Z     HAL3     0.900000E-01   1.00800           0
     16630 MEMB     145      SAPS     N        NH3L    -0.300000       14.0070           0
     16631 MEMB     145      SAPS     HN1      HCL      0.330000       1.00800           0
     16632 MEMB     145      SAPS     HN2      HCL      0.330000       1.00800           0
     16633 MEMB     145      SAPS     HN3      HCL      0.330000       1.00800           0
     16634 MEMB     145      SAPS     C12      CTL1     0.210000       12.0110           0
     16635 MEMB     145      SAPS     H12A     HBL      0.100000       1.00800           0
     16636 MEMB     145      SAPS     C13      CCL      0.340000       12.0110           0
     16637 MEMB     145      SAPS     O13A     OCL     -0.670000       15.9994           0
     16638 MEMB     145      SAPS     O13B     OCL     -0.670000       15.9994           0
     16639 MEMB     145      SAPS     C11      CTL2    -0.800000E-01   12.0110           0
     16640 MEMB     145      SAPS     H11A     HAL2     0.900000E-01   1.00800           0
     16641 MEMB     145      SAPS     H11B     HAL2     0.900000E-01   1.00800           0
     16642 MEMB     145      SAPS     P        PL        1.50000       30.9740           0
     16643 MEMB     145      SAPS     O13      O2L     -0.780000       15.9994           0
     16644 MEMB     145      SAPS     O14      O2L     -0.780000       15.9994           0
     16645 MEMB     145      SAPS     O12      OSLP    -0.570000       15.9994           0
     16646 MEMB     145      SAPS     O11      OSLP    -0.570000       15.9994           0
     16647 MEMB     145      SAPS     C1       CTL2    -0.800000E-01   12.0110           0
     16648 MEMB     145      SAPS     HA       HAL2     0.900000E-01   1.00800           0
     16649 MEMB     145      SAPS     HB       HAL2     0.900000E-01   1.00800           0
     16650 MEMB     145      SAPS     C2       CTL1     0.170000       12.0110           0
     16651 MEMB     145      SAPS     HS       HAL1     0.900000E-01   1.00800           0
     16652 MEMB     145      SAPS     O21      OSL     -0.490000       15.9994           0
     16653 MEMB     145      SAPS     C21      CL       0.900000       12.0110           0
     16654 MEMB     145      SAPS     O22      OBL     -0.630000       15.9994           0
     16655 MEMB     145      SAPS     C22      CTL2    -0.220000       12.0110           0
     16656 MEMB     145      SAPS     H2R      HAL2     0.900000E-01   1.00800           0
     16657 MEMB     145      SAPS     H2S      HAL2     0.900000E-01   1.00800           0
     16658 MEMB     145      SAPS     C3       CTL2     0.800000E-01   12.0110           0
     16659 MEMB     145      SAPS     HX       HAL2     0.900000E-01   1.00800           0
     16660 MEMB     145      SAPS     HY       HAL2     0.900000E-01   1.00800           0
     16661 MEMB     145      SAPS     O31      OSL     -0.490000       15.9994           0
     16662 MEMB     145      SAPS     C31      CL       0.900000       12.0110           0
     16663 MEMB     145      SAPS     O32      OBL     -0.630000       15.9994           0
     16664 MEMB     145      SAPS     C32      CTL2    -0.220000       12.0110           0
     16665 MEMB     145      SAPS     H2X      HAL2     0.900000E-01   1.00800           0
     16666 MEMB     145      SAPS     H2Y      HAL2     0.900000E-01   1.00800           0
     16667 MEMB     145      SAPS     C23      CTL2    -0.180000       12.0110           0
     16668 MEMB     145      SAPS     H3R      HAL2     0.900000E-01   1.00800           0
     16669 MEMB     145      SAPS     H3S      HAL2     0.900000E-01   1.00800           0
     16670 MEMB     145      SAPS     C24      CTL2    -0.180000       12.0110           0
     16671 MEMB     145      SAPS     H4R      HAL2     0.900000E-01   1.00800           0
     16672 MEMB     145      SAPS     H4S      HAL2     0.900000E-01   1.00800           0
     16673 MEMB     145      SAPS     C25      CEL1    -0.150000       12.0110           0
     16674 MEMB     145      SAPS     H5R      HEL1     0.150000       1.00800           0
     16675 MEMB     145      SAPS     C26      CEL1    -0.150000       12.0110           0
     16676 MEMB     145      SAPS     H6R      HEL1     0.150000       1.00800           0
     16677 MEMB     145      SAPS     C27      CTL2    -0.180000       12.0110           0
     16678 MEMB     145      SAPS     H7R      HAL2     0.900000E-01   1.00800           0
     16679 MEMB     145      SAPS     H7S      HAL2     0.900000E-01   1.00800           0
     16680 MEMB     145      SAPS     C28      CEL1    -0.150000       12.0110           0
     16681 MEMB     145      SAPS     H8R      HEL1     0.150000       1.00800           0
     16682 MEMB     145      SAPS     C29      CEL1    -0.150000       12.0110           0
     16683 MEMB     145      SAPS     H9R      HEL1     0.150000       1.00800           0
     16684 MEMB     145      SAPS     C210     CTL2    -0.180000       12.0110           0
     16685 MEMB     145      SAPS     H10R     HAL2     0.900000E-01   1.00800           0
     16686 MEMB     145      SAPS     H10S     HAL2     0.900000E-01   1.00800           0
     16687 MEMB     145      SAPS     C211     CEL1    -0.150000       12.0110           0
     16688 MEMB     145      SAPS     H11R     HEL1     0.150000       1.00800           0
     16689 MEMB     145      SAPS     C212     CEL1    -0.150000       12.0110           0
     16690 MEMB     145      SAPS     H12R     HEL1     0.150000       1.00800           0
     16691 MEMB     145      SAPS     C213     CTL2    -0.180000       12.0110           0
     16692 MEMB     145      SAPS     H13R     HAL2     0.900000E-01   1.00800           0
     16693 MEMB     145      SAPS     H13S     HAL2     0.900000E-01   1.00800           0
     16694 MEMB     145      SAPS     C214     CEL1    -0.150000       12.0110           0
     16695 MEMB     145      SAPS     H14R     HEL1     0.150000       1.00800           0
     16696 MEMB     145      SAPS     C215     CEL1    -0.150000       12.0110           0
     16697 MEMB     145      SAPS     H15R     HEL1     0.150000       1.00800           0
     16698 MEMB     145      SAPS     C216     CTL2    -0.180000       12.0110           0
     16699 MEMB     145      SAPS     H16R     HAL2     0.900000E-01   1.00800           0
     16700 MEMB     145      SAPS     H16S     HAL2     0.900000E-01   1.00800           0
     16701 MEMB     145      SAPS     C217     CTL2    -0.180000       12.0110           0
     16702 MEMB     145      SAPS     H17R     HAL2     0.900000E-01   1.00800           0
     16703 MEMB     145      SAPS     H17S     HAL2     0.900000E-01   1.00800           0
     16704 MEMB     145      SAPS     C218     CTL2    -0.180000       12.0110           0
     16705 MEMB     145      SAPS     H18R     HAL2     0.900000E-01   1.00800           0
     16706 MEMB     145      SAPS     H18S     HAL2     0.900000E-01   1.00800           0
     16707 MEMB     145      SAPS     C219     CTL2    -0.180000       12.0110           0
     16708 MEMB     145      SAPS     H19R     HAL2     0.900000E-01   1.00800           0
     16709 MEMB     145      SAPS     H19S     HAL2     0.900000E-01   1.00800           0
     16710 MEMB     145      SAPS     C220     CTL3    -0.270000       12.0110           0
     16711 MEMB     145      SAPS     H20R     HAL3     0.900000E-01   1.00800           0
     16712 MEMB     145      SAPS     H20S     HAL3     0.900000E-01   1.00800           0
     16713 MEMB     145      SAPS     H20T     HAL3     0.900000E-01   1.00800           0
     16714 MEMB     145      SAPS     C33      CTL2    -0.180000       12.0110           0
     16715 MEMB     145      SAPS     H3X      HAL2     0.900000E-01   1.00800           0
     16716 MEMB     145      SAPS     H3Y      HAL2     0.900000E-01   1.00800           0
     16717 MEMB     145      SAPS     C34      CTL2    -0.180000       12.0110           0
     16718 MEMB     145      SAPS     H4X      HAL2     0.900000E-01   1.00800           0
     16719 MEMB     145      SAPS     H4Y      HAL2     0.900000E-01   1.00800           0
     16720 MEMB     145      SAPS     C35      CTL2    -0.180000       12.0110           0
     16721 MEMB     145      SAPS     H5X      HAL2     0.900000E-01   1.00800           0
     16722 MEMB     145      SAPS     H5Y      HAL2     0.900000E-01   1.00800           0
     16723 MEMB     145      SAPS     C36      CTL2    -0.180000       12.0110           0
     16724 MEMB     145      SAPS     H6X      HAL2     0.900000E-01   1.00800           0
     16725 MEMB     145      SAPS     H6Y      HAL2     0.900000E-01   1.00800           0
     16726 MEMB     145      SAPS     C37      CTL2    -0.180000       12.0110           0
     16727 MEMB     145      SAPS     H7X      HAL2     0.900000E-01   1.00800           0
     16728 MEMB     145      SAPS     H7Y      HAL2     0.900000E-01   1.00800           0
     16729 MEMB     145      SAPS     C38      CTL2    -0.180000       12.0110           0
     16730 MEMB     145      SAPS     H8X      HAL2     0.900000E-01   1.00800           0
     16731 MEMB     145      SAPS     H8Y      HAL2     0.900000E-01   1.00800           0
     16732 MEMB     145      SAPS     C39      CTL2    -0.180000       12.0110           0
     16733 MEMB     145      SAPS     H9X      HAL2     0.900000E-01   1.00800           0
     16734 MEMB     145      SAPS     H9Y      HAL2     0.900000E-01   1.00800           0
     16735 MEMB     145      SAPS     C310     CTL2    -0.180000       12.0110           0
     16736 MEMB     145      SAPS     H10X     HAL2     0.900000E-01   1.00800           0
     16737 MEMB     145      SAPS     H10Y     HAL2     0.900000E-01   1.00800           0
     16738 MEMB     145      SAPS     C311     CTL2    -0.180000       12.0110           0
     16739 MEMB     145      SAPS     H11X     HAL2     0.900000E-01   1.00800           0
     16740 MEMB     145      SAPS     H11Y     HAL2     0.900000E-01   1.00800           0
     16741 MEMB     145      SAPS     C312     CTL2    -0.180000       12.0110           0
     16742 MEMB     145      SAPS     H12X     HAL2     0.900000E-01   1.00800           0
     16743 MEMB     145      SAPS     H12Y     HAL2     0.900000E-01   1.00800           0
     16744 MEMB     145      SAPS     C313     CTL2    -0.180000       12.0110           0
     16745 MEMB     145      SAPS     H13X     HAL2     0.900000E-01   1.00800           0
     16746 MEMB     145      SAPS     H13Y     HAL2     0.900000E-01   1.00800           0
     16747 MEMB     145      SAPS     C314     CTL2    -0.180000       12.0110           0
     16748 MEMB     145      SAPS     H14X     HAL2     0.900000E-01   1.00800           0
     16749 MEMB     145      SAPS     H14Y     HAL2     0.900000E-01   1.00800           0
     16750 MEMB     145      SAPS     C315     CTL2    -0.180000       12.0110           0
     16751 MEMB     145      SAPS     H15X     HAL2     0.900000E-01   1.00800           0
     16752 MEMB     145      SAPS     H15Y     HAL2     0.900000E-01   1.00800           0
     16753 MEMB     145      SAPS     C316     CTL2    -0.180000       12.0110           0
     16754 MEMB     145      SAPS     H16X     HAL2     0.900000E-01   1.00800           0
     16755 MEMB     145      SAPS     H16Y     HAL2     0.900000E-01   1.00800           0
     16756 MEMB     145      SAPS     C317     CTL2    -0.180000       12.0110           0
     16757 MEMB     145      SAPS     H17X     HAL2     0.900000E-01   1.00800           0
     16758 MEMB     145      SAPS     H17Y     HAL2     0.900000E-01   1.00800           0
     16759 MEMB     145      SAPS     C318     CTL3    -0.270000       12.0110           0
     16760 MEMB     145      SAPS     H18X     HAL3     0.900000E-01   1.00800           0
     16761 MEMB     145      SAPS     H18Y     HAL3     0.900000E-01   1.00800           0
     16762 MEMB     145      SAPS     H18Z     HAL3     0.900000E-01   1.00800           0
     16763 MEMB     146      CHL1     C3       CRL1     0.140000       12.0110           0
     16764 MEMB     146      CHL1     H3       HGA1     0.900000E-01   1.00800           0
     16765 MEMB     146      CHL1     O3       OHL     -0.660000       15.9994           0
     16766 MEMB     146      CHL1     H3'      HOL      0.430000       1.00800           0
     16767 MEMB     146      CHL1     C4       CRL2    -0.180000       12.0110           0
     16768 MEMB     146      CHL1     H4A      HGA2     0.900000E-01   1.00800           0
     16769 MEMB     146      CHL1     H4B      HGA2     0.900000E-01   1.00800           0
     16770 MEMB     146      CHL1     C5       CEL1      0.00000       12.0110           0
     16771 MEMB     146      CHL1     C6       CEL1    -0.150000       12.0110           0
     16772 MEMB     146      CHL1     H6       HEL1     0.150000       1.00800           0
     16773 MEMB     146      CHL1     C7       CRL2    -0.180000       12.0110           0
     16774 MEMB     146      CHL1     H7A      HGA2     0.900000E-01   1.00800           0
     16775 MEMB     146      CHL1     H7B      HGA2     0.900000E-01   1.00800           0
     16776 MEMB     146      CHL1     C8       CRL1    -0.900000E-01   12.0110           0
     16777 MEMB     146      CHL1     H8       HGA1     0.900000E-01   1.00800           0
     16778 MEMB     146      CHL1     C14      CRL1    -0.900000E-01   12.0110           0
     16779 MEMB     146      CHL1     H14      HGA1     0.900000E-01   1.00800           0
     16780 MEMB     146      CHL1     C15      CRL2    -0.180000       12.0110           0
     16781 MEMB     146      CHL1     H15A     HGA2     0.900000E-01   1.00800           0
     16782 MEMB     146      CHL1     H15B     HGA2     0.900000E-01   1.00800           0
     16783 MEMB     146      CHL1     C16      CRL2    -0.180000       12.0110           0
     16784 MEMB     146      CHL1     H16A     HGA2     0.900000E-01   1.00800           0
     16785 MEMB     146      CHL1     H16B     HGA2     0.900000E-01   1.00800           0
     16786 MEMB     146      CHL1     C17      CRL1    -0.900000E-01   12.0110           0
     16787 MEMB     146      CHL1     H17      HGA1     0.900000E-01   1.00800           0
     16788 MEMB     146      CHL1     C13      CRL1      0.00000       12.0110           0
     16789 MEMB     146      CHL1     C18      CTL3    -0.270000       12.0110           0
     16790 MEMB     146      CHL1     H18A     HAL3     0.900000E-01   1.00800           0
     16791 MEMB     146      CHL1     H18B     HAL3     0.900000E-01   1.00800           0
     16792 MEMB     146      CHL1     H18C     HAL3     0.900000E-01   1.00800           0
     16793 MEMB     146      CHL1     C12      CRL2    -0.180000       12.0110           0
     16794 MEMB     146      CHL1     H12A     HGA2     0.900000E-01   1.00800           0
     16795 MEMB     146      CHL1     H12B     HGA2     0.900000E-01   1.00800           0
     16796 MEMB     146      CHL1     C11      CRL2    -0.180000       12.0110           0
     16797 MEMB     146      CHL1     H11A     HGA2     0.900000E-01   1.00800           0
     16798 MEMB     146      CHL1     H11B     HGA2     0.900000E-01   1.00800           0
     16799 MEMB     146      CHL1     C9       CRL1    -0.900000E-01   12.0110           0
     16800 MEMB     146      CHL1     H9       HGA1     0.900000E-01   1.00800           0
     16801 MEMB     146      CHL1     C10      CRL1      0.00000       12.0110           0
     16802 MEMB     146      CHL1     C19      CTL3    -0.270000       12.0110           0
     16803 MEMB     146      CHL1     H19A     HAL3     0.900000E-01   1.00800           0
     16804 MEMB     146      CHL1     H19B     HAL3     0.900000E-01   1.00800           0
     16805 MEMB     146      CHL1     H19C     HAL3     0.900000E-01   1.00800           0
     16806 MEMB     146      CHL1     C1       CRL2    -0.180000       12.0110           0
     16807 MEMB     146      CHL1     H1A      HGA2     0.900000E-01   1.00800           0
     16808 MEMB     146      CHL1     H1B      HGA2     0.900000E-01   1.00800           0
     16809 MEMB     146      CHL1     C2       CRL2    -0.180000       12.0110           0
     16810 MEMB     146      CHL1     H2A      HGA2     0.900000E-01   1.00800           0
     16811 MEMB     146      CHL1     H2B      HGA2     0.900000E-01   1.00800           0
     16812 MEMB     146      CHL1     C20      CTL1    -0.900000E-01   12.0110           0
     16813 MEMB     146      CHL1     H20      HAL1     0.900000E-01   1.00800           0
     16814 MEMB     146      CHL1     C21      CTL3    -0.270000       12.0110           0
     16815 MEMB     146      CHL1     H21A     HAL3     0.900000E-01   1.00800           0
     16816 MEMB     146      CHL1     H21B     HAL3     0.900000E-01   1.00800           0
     16817 MEMB     146      CHL1     H21C     HAL3     0.900000E-01   1.00800           0
     16818 MEMB     146      CHL1     C22      CTL2    -0.180000       12.0110           0
     16819 MEMB     146      CHL1     H22A     HAL2     0.900000E-01   1.00800           0
     16820 MEMB     146      CHL1     H22B     HAL2     0.900000E-01   1.00800           0
     16821 MEMB     146      CHL1     C23      CTL2    -0.180000       12.0110           0
     16822 MEMB     146      CHL1     H23A     HAL2     0.900000E-01   1.00800           0
     16823 MEMB     146      CHL1     H23B     HAL2     0.900000E-01   1.00800           0
     16824 MEMB     146      CHL1     C24      CTL2    -0.180000       12.0110           0
     16825 MEMB     146      CHL1     H24A     HAL2     0.900000E-01   1.00800           0
     16826 MEMB     146      CHL1     H24B     HAL2     0.900000E-01   1.00800           0
     16827 MEMB     146      CHL1     C25      CTL1    -0.900000E-01   12.0110           0
     16828 MEMB     146      CHL1     H25      HAL1     0.900000E-01   1.00800           0
     16829 MEMB     146      CHL1     C26      CTL3    -0.270000       12.0110           0
     16830 MEMB     146      CHL1     H26A     HAL3     0.900000E-01   1.00800           0
     16831 MEMB     146      CHL1     H26B     HAL3     0.900000E-01   1.00800           0
     16832 MEMB     146      CHL1     H26C     HAL3     0.900000E-01   1.00800           0
     16833 MEMB     146      CHL1     C27      CTL3    -0.270000       12.0110           0
     16834 MEMB     146      CHL1     H27A     HAL3     0.900000E-01   1.00800           0
     16835 MEMB     146      CHL1     H27B     HAL3     0.900000E-01   1.00800           0
     16836 MEMB     146      CHL1     H27C     HAL3     0.900000E-01   1.00800           0
     16837 MEMB     147      CHL1     C3       CRL1     0.140000       12.0110           0
     16838 MEMB     147      CHL1     H3       HGA1     0.900000E-01   1.00800           0
     16839 MEMB     147      CHL1     O3       OHL     -0.660000       15.9994           0
     16840 MEMB     147      CHL1     H3'      HOL      0.430000       1.00800           0
     16841 MEMB     147      CHL1     C4       CRL2    -0.180000       12.0110           0
     16842 MEMB     147      CHL1     H4A      HGA2     0.900000E-01   1.00800           0
     16843 MEMB     147      CHL1     H4B      HGA2     0.900000E-01   1.00800           0
     16844 MEMB     147      CHL1     C5       CEL1      0.00000       12.0110           0
     16845 MEMB     147      CHL1     C6       CEL1    -0.150000       12.0110           0
     16846 MEMB     147      CHL1     H6       HEL1     0.150000       1.00800           0
     16847 MEMB     147      CHL1     C7       CRL2    -0.180000       12.0110           0
     16848 MEMB     147      CHL1     H7A      HGA2     0.900000E-01   1.00800           0
     16849 MEMB     147      CHL1     H7B      HGA2     0.900000E-01   1.00800           0
     16850 MEMB     147      CHL1     C8       CRL1    -0.900000E-01   12.0110           0
     16851 MEMB     147      CHL1     H8       HGA1     0.900000E-01   1.00800           0
     16852 MEMB     147      CHL1     C14      CRL1    -0.900000E-01   12.0110           0
     16853 MEMB     147      CHL1     H14      HGA1     0.900000E-01   1.00800           0
     16854 MEMB     147      CHL1     C15      CRL2    -0.180000       12.0110           0
     16855 MEMB     147      CHL1     H15A     HGA2     0.900000E-01   1.00800           0
     16856 MEMB     147      CHL1     H15B     HGA2     0.900000E-01   1.00800           0
     16857 MEMB     147      CHL1     C16      CRL2    -0.180000       12.0110           0
     16858 MEMB     147      CHL1     H16A     HGA2     0.900000E-01   1.00800           0
     16859 MEMB     147      CHL1     H16B     HGA2     0.900000E-01   1.00800           0
     16860 MEMB     147      CHL1     C17      CRL1    -0.900000E-01   12.0110           0
     16861 MEMB     147      CHL1     H17      HGA1     0.900000E-01   1.00800           0
     16862 MEMB     147      CHL1     C13      CRL1      0.00000       12.0110           0
     16863 MEMB     147      CHL1     C18      CTL3    -0.270000       12.0110           0
     16864 MEMB     147      CHL1     H18A     HAL3     0.900000E-01   1.00800           0
     16865 MEMB     147      CHL1     H18B     HAL3     0.900000E-01   1.00800           0
     16866 MEMB     147      CHL1     H18C     HAL3     0.900000E-01   1.00800           0
     16867 MEMB     147      CHL1     C12      CRL2    -0.180000       12.0110           0
     16868 MEMB     147      CHL1     H12A     HGA2     0.900000E-01   1.00800           0
     16869 MEMB     147      CHL1     H12B     HGA2     0.900000E-01   1.00800           0
     16870 MEMB     147      CHL1     C11      CRL2    -0.180000       12.0110           0
     16871 MEMB     147      CHL1     H11A     HGA2     0.900000E-01   1.00800           0
     16872 MEMB     147      CHL1     H11B     HGA2     0.900000E-01   1.00800           0
     16873 MEMB     147      CHL1     C9       CRL1    -0.900000E-01   12.0110           0
     16874 MEMB     147      CHL1     H9       HGA1     0.900000E-01   1.00800           0
     16875 MEMB     147      CHL1     C10      CRL1      0.00000       12.0110           0
     16876 MEMB     147      CHL1     C19      CTL3    -0.270000       12.0110           0
     16877 MEMB     147      CHL1     H19A     HAL3     0.900000E-01   1.00800           0
     16878 MEMB     147      CHL1     H19B     HAL3     0.900000E-01   1.00800           0
     16879 MEMB     147      CHL1     H19C     HAL3     0.900000E-01   1.00800           0
     16880 MEMB     147      CHL1     C1       CRL2    -0.180000       12.0110           0
     16881 MEMB     147      CHL1     H1A      HGA2     0.900000E-01   1.00800           0
     16882 MEMB     147      CHL1     H1B      HGA2     0.900000E-01   1.00800           0
     16883 MEMB     147      CHL1     C2       CRL2    -0.180000       12.0110           0
     16884 MEMB     147      CHL1     H2A      HGA2     0.900000E-01   1.00800           0
     16885 MEMB     147      CHL1     H2B      HGA2     0.900000E-01   1.00800           0
     16886 MEMB     147      CHL1     C20      CTL1    -0.900000E-01   12.0110           0
     16887 MEMB     147      CHL1     H20      HAL1     0.900000E-01   1.00800           0
     16888 MEMB     147      CHL1     C21      CTL3    -0.270000       12.0110           0
     16889 MEMB     147      CHL1     H21A     HAL3     0.900000E-01   1.00800           0
     16890 MEMB     147      CHL1     H21B     HAL3     0.900000E-01   1.00800           0
     16891 MEMB     147      CHL1     H21C     HAL3     0.900000E-01   1.00800           0
     16892 MEMB     147      CHL1     C22      CTL2    -0.180000       12.0110           0
     16893 MEMB     147      CHL1     H22A     HAL2     0.900000E-01   1.00800           0
     16894 MEMB     147      CHL1     H22B     HAL2     0.900000E-01   1.00800           0
     16895 MEMB     147      CHL1     C23      CTL2    -0.180000       12.0110           0
     16896 MEMB     147      CHL1     H23A     HAL2     0.900000E-01   1.00800           0
     16897 MEMB     147      CHL1     H23B     HAL2     0.900000E-01   1.00800           0
     16898 MEMB     147      CHL1     C24      CTL2    -0.180000       12.0110           0
     16899 MEMB     147      CHL1     H24A     HAL2     0.900000E-01   1.00800           0
     16900 MEMB     147      CHL1     H24B     HAL2     0.900000E-01   1.00800           0
     16901 MEMB     147      CHL1     C25      CTL1    -0.900000E-01   12.0110           0
     16902 MEMB     147      CHL1     H25      HAL1     0.900000E-01   1.00800           0
     16903 MEMB     147      CHL1     C26      CTL3    -0.270000       12.0110           0
     16904 MEMB     147      CHL1     H26A     HAL3     0.900000E-01   1.00800           0
     16905 MEMB     147      CHL1     H26B     HAL3     0.900000E-01   1.00800           0
     16906 MEMB     147      CHL1     H26C     HAL3     0.900000E-01   1.00800           0
     16907 MEMB     147      CHL1     C27      CTL3    -0.270000       12.0110           0
     16908 MEMB     147      CHL1     H27A     HAL3     0.900000E-01   1.00800           0
     16909 MEMB     147      CHL1     H27B     HAL3     0.900000E-01   1.00800           0
     16910 MEMB     147      CHL1     H27C     HAL3     0.900000E-01   1.00800           0
     16911 MEMB     148      CHL1     C3       CRL1     0.140000       12.0110           0
     16912 MEMB     148      CHL1     H3       HGA1     0.900000E-01   1.00800           0
     16913 MEMB     148      CHL1     O3       OHL     -0.660000       15.9994           0
     16914 MEMB     148      CHL1     H3'      HOL      0.430000       1.00800           0
     16915 MEMB     148      CHL1     C4       CRL2    -0.180000       12.0110           0
     16916 MEMB     148      CHL1     H4A      HGA2     0.900000E-01   1.00800           0
     16917 MEMB     148      CHL1     H4B      HGA2     0.900000E-01   1.00800           0
     16918 MEMB     148      CHL1     C5       CEL1      0.00000       12.0110           0
     16919 MEMB     148      CHL1     C6       CEL1    -0.150000       12.0110           0
     16920 MEMB     148      CHL1     H6       HEL1     0.150000       1.00800           0
     16921 MEMB     148      CHL1     C7       CRL2    -0.180000       12.0110           0
     16922 MEMB     148      CHL1     H7A      HGA2     0.900000E-01   1.00800           0
     16923 MEMB     148      CHL1     H7B      HGA2     0.900000E-01   1.00800           0
     16924 MEMB     148      CHL1     C8       CRL1    -0.900000E-01   12.0110           0
     16925 MEMB     148      CHL1     H8       HGA1     0.900000E-01   1.00800           0
     16926 MEMB     148      CHL1     C14      CRL1    -0.900000E-01   12.0110           0
     16927 MEMB     148      CHL1     H14      HGA1     0.900000E-01   1.00800           0
     16928 MEMB     148      CHL1     C15      CRL2    -0.180000       12.0110           0
     16929 MEMB     148      CHL1     H15A     HGA2     0.900000E-01   1.00800           0
     16930 MEMB     148      CHL1     H15B     HGA2     0.900000E-01   1.00800           0
     16931 MEMB     148      CHL1     C16      CRL2    -0.180000       12.0110           0
     16932 MEMB     148      CHL1     H16A     HGA2     0.900000E-01   1.00800           0
     16933 MEMB     148      CHL1     H16B     HGA2     0.900000E-01   1.00800           0
     16934 MEMB     148      CHL1     C17      CRL1    -0.900000E-01   12.0110           0
     16935 MEMB     148      CHL1     H17      HGA1     0.900000E-01   1.00800           0
     16936 MEMB     148      CHL1     C13      CRL1      0.00000       12.0110           0
     16937 MEMB     148      CHL1     C18      CTL3    -0.270000       12.0110           0
     16938 MEMB     148      CHL1     H18A     HAL3     0.900000E-01   1.00800           0
     16939 MEMB     148      CHL1     H18B     HAL3     0.900000E-01   1.00800           0
     16940 MEMB     148      CHL1     H18C     HAL3     0.900000E-01   1.00800           0
     16941 MEMB     148      CHL1     C12      CRL2    -0.180000       12.0110           0
     16942 MEMB     148      CHL1     H12A     HGA2     0.900000E-01   1.00800           0
     16943 MEMB     148      CHL1     H12B     HGA2     0.900000E-01   1.00800           0
     16944 MEMB     148      CHL1     C11      CRL2    -0.180000       12.0110           0
     16945 MEMB     148      CHL1     H11A     HGA2     0.900000E-01   1.00800           0
     16946 MEMB     148      CHL1     H11B     HGA2     0.900000E-01   1.00800           0
     16947 MEMB     148      CHL1     C9       CRL1    -0.900000E-01   12.0110           0
     16948 MEMB     148      CHL1     H9       HGA1     0.900000E-01   1.00800           0
     16949 MEMB     148      CHL1     C10      CRL1      0.00000       12.0110           0
     16950 MEMB     148      CHL1     C19      CTL3    -0.270000       12.0110           0
     16951 MEMB     148      CHL1     H19A     HAL3     0.900000E-01   1.00800           0
     16952 MEMB     148      CHL1     H19B     HAL3     0.900000E-01   1.00800           0
     16953 MEMB     148      CHL1     H19C     HAL3     0.900000E-01   1.00800           0
     16954 MEMB     148      CHL1     C1       CRL2    -0.180000       12.0110           0
     16955 MEMB     148      CHL1     H1A      HGA2     0.900000E-01   1.00800           0
     16956 MEMB     148      CHL1     H1B      HGA2     0.900000E-01   1.00800           0
     16957 MEMB     148      CHL1     C2       CRL2    -0.180000       12.0110           0
     16958 MEMB     148      CHL1     H2A      HGA2     0.900000E-01   1.00800           0
     16959 MEMB     148      CHL1     H2B      HGA2     0.900000E-01   1.00800           0
     16960 MEMB     148      CHL1     C20      CTL1    -0.900000E-01   12.0110           0
     16961 MEMB     148      CHL1     H20      HAL1     0.900000E-01   1.00800           0
     16962 MEMB     148      CHL1     C21      CTL3    -0.270000       12.0110           0
     16963 MEMB     148      CHL1     H21A     HAL3     0.900000E-01   1.00800           0
     16964 MEMB     148      CHL1     H21B     HAL3     0.900000E-01   1.00800           0
     16965 MEMB     148      CHL1     H21C     HAL3     0.900000E-01   1.00800           0
     16966 MEMB     148      CHL1     C22      CTL2    -0.180000       12.0110           0
     16967 MEMB     148      CHL1     H22A     HAL2     0.900000E-01   1.00800           0
     16968 MEMB     148      CHL1     H22B     HAL2     0.900000E-01   1.00800           0
     16969 MEMB     148      CHL1     C23      CTL2    -0.180000       12.0110           0
     16970 MEMB     148      CHL1     H23A     HAL2     0.900000E-01   1.00800           0
     16971 MEMB     148      CHL1     H23B     HAL2     0.900000E-01   1.00800           0
     16972 MEMB     148      CHL1     C24      CTL2    -0.180000       12.0110           0
     16973 MEMB     148      CHL1     H24A     HAL2     0.900000E-01   1.00800           0
     16974 MEMB     148      CHL1     H24B     HAL2     0.900000E-01   1.00800           0
     16975 MEMB     148      CHL1     C25      CTL1    -0.900000E-01   12.0110           0
     16976 MEMB     148      CHL1     H25      HAL1     0.900000E-01   1.00800           0
     16977 MEMB     148      CHL1     C26      CTL3    -0.270000       12.0110           0
     16978 MEMB     148      CHL1     H26A     HAL3     0.900000E-01   1.00800           0
     16979 MEMB     148      CHL1     H26B     HAL3     0.900000E-01   1.00800           0
     16980 MEMB     148      CHL1     H26C     HAL3     0.900000E-01   1.00800           0
     16981 MEMB     148      CHL1     C27      CTL3    -0.270000       12.0110           0
     16982 MEMB     148      CHL1     H27A     HAL3     0.900000E-01   1.00800           0
     16983 MEMB     148      CHL1     H27B     HAL3     0.900000E-01   1.00800           0
     16984 MEMB     148      CHL1     H27C     HAL3     0.900000E-01   1.00800           0
     16985 MEMB     149      SOPE     N        NH3L    -0.300000       14.0070           0
     16986 MEMB     149      SOPE     HN1      HCL      0.330000       1.00800           0
     16987 MEMB     149      SOPE     HN2      HCL      0.330000       1.00800           0
     16988 MEMB     149      SOPE     HN3      HCL      0.330000       1.00800           0
     16989 MEMB     149      SOPE     C12      CTL2     0.130000       12.0110           0
     16990 MEMB     149      SOPE     H12A     HAL2     0.900000E-01   1.00800           0
     16991 MEMB     149      SOPE     H12B     HAL2     0.900000E-01   1.00800           0
     16992 MEMB     149      SOPE     C11      CTL2    -0.800000E-01   12.0110           0
     16993 MEMB     149      SOPE     H11A     HAL2     0.900000E-01   1.00800           0
     16994 MEMB     149      SOPE     H11B     HAL2     0.900000E-01   1.00800           0
     16995 MEMB     149      SOPE     P        PL        1.50000       30.9740           0
     16996 MEMB     149      SOPE     O13      O2L     -0.780000       15.9994           0
     16997 MEMB     149      SOPE     O14      O2L     -0.780000       15.9994           0
     16998 MEMB     149      SOPE     O12      OSLP    -0.570000       15.9994           0
     16999 MEMB     149      SOPE     O11      OSLP    -0.570000       15.9994           0
     17000 MEMB     149      SOPE     C1       CTL2    -0.800000E-01   12.0110           0
     17001 MEMB     149      SOPE     HA       HAL2     0.900000E-01   1.00800           0
     17002 MEMB     149      SOPE     HB       HAL2     0.900000E-01   1.00800           0
     17003 MEMB     149      SOPE     C2       CTL1     0.170000       12.0110           0
     17004 MEMB     149      SOPE     HS       HAL1     0.900000E-01   1.00800           0
     17005 MEMB     149      SOPE     O21      OSL     -0.490000       15.9994           0
     17006 MEMB     149      SOPE     C21      CL       0.900000       12.0110           0
     17007 MEMB     149      SOPE     O22      OBL     -0.630000       15.9994           0
     17008 MEMB     149      SOPE     C22      CTL2    -0.220000       12.0110           0
     17009 MEMB     149      SOPE     H2R      HAL2     0.900000E-01   1.00800           0
     17010 MEMB     149      SOPE     H2S      HAL2     0.900000E-01   1.00800           0
     17011 MEMB     149      SOPE     C3       CTL2     0.800000E-01   12.0110           0
     17012 MEMB     149      SOPE     HX       HAL2     0.900000E-01   1.00800           0
     17013 MEMB     149      SOPE     HY       HAL2     0.900000E-01   1.00800           0
     17014 MEMB     149      SOPE     O31      OSL     -0.490000       15.9994           0
     17015 MEMB     149      SOPE     C31      CL       0.900000       12.0110           0
     17016 MEMB     149      SOPE     O32      OBL     -0.630000       15.9994           0
     17017 MEMB     149      SOPE     C32      CTL2    -0.220000       12.0110           0
     17018 MEMB     149      SOPE     H2X      HAL2     0.900000E-01   1.00800           0
     17019 MEMB     149      SOPE     H2Y      HAL2     0.900000E-01   1.00800           0
     17020 MEMB     149      SOPE     C23      CTL2    -0.180000       12.0110           0
     17021 MEMB     149      SOPE     H3R      HAL2     0.900000E-01   1.00800           0
     17022 MEMB     149      SOPE     H3S      HAL2     0.900000E-01   1.00800           0
     17023 MEMB     149      SOPE     C24      CTL2    -0.180000       12.0110           0
     17024 MEMB     149      SOPE     H4R      HAL2     0.900000E-01   1.00800           0
     17025 MEMB     149      SOPE     H4S      HAL2     0.900000E-01   1.00800           0
     17026 MEMB     149      SOPE     C25      CTL2    -0.180000       12.0110           0
     17027 MEMB     149      SOPE     H5R      HAL2     0.900000E-01   1.00800           0
     17028 MEMB     149      SOPE     H5S      HAL2     0.900000E-01   1.00800           0
     17029 MEMB     149      SOPE     C26      CTL2    -0.180000       12.0110           0
     17030 MEMB     149      SOPE     H6R      HAL2     0.900000E-01   1.00800           0
     17031 MEMB     149      SOPE     H6S      HAL2     0.900000E-01   1.00800           0
     17032 MEMB     149      SOPE     C27      CTL2    -0.180000       12.0110           0
     17033 MEMB     149      SOPE     H7R      HAL2     0.900000E-01   1.00800           0
     17034 MEMB     149      SOPE     H7S      HAL2     0.900000E-01   1.00800           0
     17035 MEMB     149      SOPE     C28      CTL2    -0.180000       12.0110           0
     17036 MEMB     149      SOPE     H8R      HAL2     0.900000E-01   1.00800           0
     17037 MEMB     149      SOPE     H8S      HAL2     0.900000E-01   1.00800           0
     17038 MEMB     149      SOPE     C29      CEL1    -0.150000       12.0110           0
     17039 MEMB     149      SOPE     H91      HEL1     0.150000       1.00800           0
     17040 MEMB     149      SOPE     C210     CEL1    -0.150000       12.0110           0
     17041 MEMB     149      SOPE     H101     HEL1     0.150000       1.00800           0
     17042 MEMB     149      SOPE     C211     CTL2    -0.180000       12.0110           0
     17043 MEMB     149      SOPE     H11R     HAL2     0.900000E-01   1.00800           0
     17044 MEMB     149      SOPE     H11S     HAL2     0.900000E-01   1.00800           0
     17045 MEMB     149      SOPE     C212     CTL2    -0.180000       12.0110           0
     17046 MEMB     149      SOPE     H12R     HAL2     0.900000E-01   1.00800           0
     17047 MEMB     149      SOPE     H12S     HAL2     0.900000E-01   1.00800           0
     17048 MEMB     149      SOPE     C213     CTL2    -0.180000       12.0110           0
     17049 MEMB     149      SOPE     H13R     HAL2     0.900000E-01   1.00800           0
     17050 MEMB     149      SOPE     H13S     HAL2     0.900000E-01   1.00800           0
     17051 MEMB     149      SOPE     C214     CTL2    -0.180000       12.0110           0
     17052 MEMB     149      SOPE     H14R     HAL2     0.900000E-01   1.00800           0
     17053 MEMB     149      SOPE     H14S     HAL2     0.900000E-01   1.00800           0
     17054 MEMB     149      SOPE     C215     CTL2    -0.180000       12.0110           0
     17055 MEMB     149      SOPE     H15R     HAL2     0.900000E-01   1.00800           0
     17056 MEMB     149      SOPE     H15S     HAL2     0.900000E-01   1.00800           0
     17057 MEMB     149      SOPE     C216     CTL2    -0.180000       12.0110           0
     17058 MEMB     149      SOPE     H16R     HAL2     0.900000E-01   1.00800           0
     17059 MEMB     149      SOPE     H16S     HAL2     0.900000E-01   1.00800           0
     17060 MEMB     149      SOPE     C217     CTL2    -0.180000       12.0110           0
     17061 MEMB     149      SOPE     H17R     HAL2     0.900000E-01   1.00800           0
     17062 MEMB     149      SOPE     H17S     HAL2     0.900000E-01   1.00800           0
     17063 MEMB     149      SOPE     C218     CTL3    -0.270000       12.0110           0
     17064 MEMB     149      SOPE     H18R     HAL3     0.900000E-01   1.00800           0
     17065 MEMB     149      SOPE     H18S     HAL3     0.900000E-01   1.00800           0
     17066 MEMB     149      SOPE     H18T     HAL3     0.900000E-01   1.00800           0
     17067 MEMB     149      SOPE     C33      CTL2    -0.180000       12.0110           0
     17068 MEMB     149      SOPE     H3X      HAL2     0.900000E-01   1.00800           0
     17069 MEMB     149      SOPE     H3Y      HAL2     0.900000E-01   1.00800           0
     17070 MEMB     149      SOPE     C34      CTL2    -0.180000       12.0110           0
     17071 MEMB     149      SOPE     H4X      HAL2     0.900000E-01   1.00800           0
     17072 MEMB     149      SOPE     H4Y      HAL2     0.900000E-01   1.00800           0
     17073 MEMB     149      SOPE     C35      CTL2    -0.180000       12.0110           0
     17074 MEMB     149      SOPE     H5X      HAL2     0.900000E-01   1.00800           0
     17075 MEMB     149      SOPE     H5Y      HAL2     0.900000E-01   1.00800           0
     17076 MEMB     149      SOPE     C36      CTL2    -0.180000       12.0110           0
     17077 MEMB     149      SOPE     H6X      HAL2     0.900000E-01   1.00800           0
     17078 MEMB     149      SOPE     H6Y      HAL2     0.900000E-01   1.00800           0
     17079 MEMB     149      SOPE     C37      CTL2    -0.180000       12.0110           0
     17080 MEMB     149      SOPE     H7X      HAL2     0.900000E-01   1.00800           0
     17081 MEMB     149      SOPE     H7Y      HAL2     0.900000E-01   1.00800           0
     17082 MEMB     149      SOPE     C38      CTL2    -0.180000       12.0110           0
     17083 MEMB     149      SOPE     H8X      HAL2     0.900000E-01   1.00800           0
     17084 MEMB     149      SOPE     H8Y      HAL2     0.900000E-01   1.00800           0
     17085 MEMB     149      SOPE     C39      CTL2    -0.180000       12.0110           0
     17086 MEMB     149      SOPE     H9X      HAL2     0.900000E-01   1.00800           0
     17087 MEMB     149      SOPE     H9Y      HAL2     0.900000E-01   1.00800           0
     17088 MEMB     149      SOPE     C310     CTL2    -0.180000       12.0110           0
     17089 MEMB     149      SOPE     H10X     HAL2     0.900000E-01   1.00800           0
     17090 MEMB     149      SOPE     H10Y     HAL2     0.900000E-01   1.00800           0
     17091 MEMB     149      SOPE     C311     CTL2    -0.180000       12.0110           0
     17092 MEMB     149      SOPE     H11X     HAL2     0.900000E-01   1.00800           0
     17093 MEMB     149      SOPE     H11Y     HAL2     0.900000E-01   1.00800           0
     17094 MEMB     149      SOPE     C312     CTL2    -0.180000       12.0110           0
     17095 MEMB     149      SOPE     H12X     HAL2     0.900000E-01   1.00800           0
     17096 MEMB     149      SOPE     H12Y     HAL2     0.900000E-01   1.00800           0
     17097 MEMB     149      SOPE     C313     CTL2    -0.180000       12.0110           0
     17098 MEMB     149      SOPE     H13X     HAL2     0.900000E-01   1.00800           0
     17099 MEMB     149      SOPE     H13Y     HAL2     0.900000E-01   1.00800           0
     17100 MEMB     149      SOPE     C314     CTL2    -0.180000       12.0110           0
     17101 MEMB     149      SOPE     H14X     HAL2     0.900000E-01   1.00800           0
     17102 MEMB     149      SOPE     H14Y     HAL2     0.900000E-01   1.00800           0
     17103 MEMB     149      SOPE     C315     CTL2    -0.180000       12.0110           0
     17104 MEMB     149      SOPE     H15X     HAL2     0.900000E-01   1.00800           0
     17105 MEMB     149      SOPE     H15Y     HAL2     0.900000E-01   1.00800           0
     17106 MEMB     149      SOPE     C316     CTL2    -0.180000       12.0110           0
     17107 MEMB     149      SOPE     H16X     HAL2     0.900000E-01   1.00800           0
     17108 MEMB     149      SOPE     H16Y     HAL2     0.900000E-01   1.00800           0
     17109 MEMB     149      SOPE     C317     CTL2    -0.180000       12.0110           0
     17110 MEMB     149      SOPE     H17X     HAL2     0.900000E-01   1.00800           0
     17111 MEMB     149      SOPE     H17Y     HAL2     0.900000E-01   1.00800           0
     17112 MEMB     149      SOPE     C318     CTL3    -0.270000       12.0110           0
     17113 MEMB     149      SOPE     H18X     HAL3     0.900000E-01   1.00800           0
     17114 MEMB     149      SOPE     H18Y     HAL3     0.900000E-01   1.00800           0
     17115 MEMB     149      SOPE     H18Z     HAL3     0.900000E-01   1.00800           0
     17116 MEMB     150      SLPC     N        NTL     -0.600000       14.0070           0
     17117 MEMB     150      SLPC     C13      CTL5    -0.350000       12.0110           0
     17118 MEMB     150      SLPC     H13A     HL       0.250000       1.00800           0
     17119 MEMB     150      SLPC     H13B     HL       0.250000       1.00800           0
     17120 MEMB     150      SLPC     H13C     HL       0.250000       1.00800           0
     17121 MEMB     150      SLPC     C14      CTL5    -0.350000       12.0110           0
     17122 MEMB     150      SLPC     H14A     HL       0.250000       1.00800           0
     17123 MEMB     150      SLPC     H14B     HL       0.250000       1.00800           0
     17124 MEMB     150      SLPC     H14C     HL       0.250000       1.00800           0
     17125 MEMB     150      SLPC     C15      CTL5    -0.350000       12.0110           0
     17126 MEMB     150      SLPC     H15A     HL       0.250000       1.00800           0
     17127 MEMB     150      SLPC     H15B     HL       0.250000       1.00800           0
     17128 MEMB     150      SLPC     H15C     HL       0.250000       1.00800           0
     17129 MEMB     150      SLPC     C12      CTL2    -0.100000       12.0110           0
     17130 MEMB     150      SLPC     H12A     HL       0.250000       1.00800           0
     17131 MEMB     150      SLPC     H12B     HL       0.250000       1.00800           0
     17132 MEMB     150      SLPC     C11      CTL2    -0.800000E-01   12.0110           0
     17133 MEMB     150      SLPC     H11A     HAL2     0.900000E-01   1.00800           0
     17134 MEMB     150      SLPC     H11B     HAL2     0.900000E-01   1.00800           0
     17135 MEMB     150      SLPC     P        PL        1.50000       30.9740           0
     17136 MEMB     150      SLPC     O13      O2L     -0.780000       15.9994           0
     17137 MEMB     150      SLPC     O14      O2L     -0.780000       15.9994           0
     17138 MEMB     150      SLPC     O12      OSLP    -0.570000       15.9994           0
     17139 MEMB     150      SLPC     O11      OSLP    -0.570000       15.9994           0
     17140 MEMB     150      SLPC     C1       CTL2    -0.800000E-01   12.0110           0
     17141 MEMB     150      SLPC     HA       HAL2     0.900000E-01   1.00800           0
     17142 MEMB     150      SLPC     HB       HAL2     0.900000E-01   1.00800           0
     17143 MEMB     150      SLPC     C2       CTL1     0.170000       12.0110           0
     17144 MEMB     150      SLPC     HS       HAL1     0.900000E-01   1.00800           0
     17145 MEMB     150      SLPC     O21      OSL     -0.490000       15.9994           0
     17146 MEMB     150      SLPC     C21      CL       0.900000       12.0110           0
     17147 MEMB     150      SLPC     O22      OBL     -0.630000       15.9994           0
     17148 MEMB     150      SLPC     C22      CTL2    -0.220000       12.0110           0
     17149 MEMB     150      SLPC     H2R      HAL2     0.900000E-01   1.00800           0
     17150 MEMB     150      SLPC     H2S      HAL2     0.900000E-01   1.00800           0
     17151 MEMB     150      SLPC     C3       CTL2     0.800000E-01   12.0110           0
     17152 MEMB     150      SLPC     HX       HAL2     0.900000E-01   1.00800           0
     17153 MEMB     150      SLPC     HY       HAL2     0.900000E-01   1.00800           0
     17154 MEMB     150      SLPC     O31      OSL     -0.490000       15.9994           0
     17155 MEMB     150      SLPC     C31      CL       0.900000       12.0110           0
     17156 MEMB     150      SLPC     O32      OBL     -0.630000       15.9994           0
     17157 MEMB     150      SLPC     C32      CTL2    -0.220000       12.0110           0
     17158 MEMB     150      SLPC     H2X      HAL2     0.900000E-01   1.00800           0
     17159 MEMB     150      SLPC     H2Y      HAL2     0.900000E-01   1.00800           0
     17160 MEMB     150      SLPC     C23      CTL2    -0.180000       12.0110           0
     17161 MEMB     150      SLPC     H3R      HAL2     0.900000E-01   1.00800           0
     17162 MEMB     150      SLPC     H3S      HAL2     0.900000E-01   1.00800           0
     17163 MEMB     150      SLPC     C24      CTL2    -0.180000       12.0110           0
     17164 MEMB     150      SLPC     H4R      HAL2     0.900000E-01   1.00800           0
     17165 MEMB     150      SLPC     H4S      HAL2     0.900000E-01   1.00800           0
     17166 MEMB     150      SLPC     C25      CTL2    -0.180000       12.0110           0
     17167 MEMB     150      SLPC     H5R      HAL2     0.900000E-01   1.00800           0
     17168 MEMB     150      SLPC     H5S      HAL2     0.900000E-01   1.00800           0
     17169 MEMB     150      SLPC     C26      CTL2    -0.180000       12.0110           0
     17170 MEMB     150      SLPC     H6R      HAL2     0.900000E-01   1.00800           0
     17171 MEMB     150      SLPC     H6S      HAL2     0.900000E-01   1.00800           0
     17172 MEMB     150      SLPC     C27      CTL2    -0.180000       12.0110           0
     17173 MEMB     150      SLPC     H7R      HAL2     0.900000E-01   1.00800           0
     17174 MEMB     150      SLPC     H7S      HAL2     0.900000E-01   1.00800           0
     17175 MEMB     150      SLPC     C28      CTL2    -0.180000       12.0110           0
     17176 MEMB     150      SLPC     H8R      HAL2     0.900000E-01   1.00800           0
     17177 MEMB     150      SLPC     H8S      HAL2     0.900000E-01   1.00800           0
     17178 MEMB     150      SLPC     C29      CEL1    -0.150000       12.0110           0
     17179 MEMB     150      SLPC     H9R      HEL1     0.150000       1.00800           0
     17180 MEMB     150      SLPC     C210     CEL1    -0.150000       12.0110           0
     17181 MEMB     150      SLPC     H10R     HEL1     0.150000       1.00800           0
     17182 MEMB     150      SLPC     C211     CTL2    -0.180000       12.0110           0
     17183 MEMB     150      SLPC     H11R     HAL2     0.900000E-01   1.00800           0
     17184 MEMB     150      SLPC     H11S     HAL2     0.900000E-01   1.00800           0
     17185 MEMB     150      SLPC     C212     CEL1    -0.150000       12.0110           0
     17186 MEMB     150      SLPC     H12R     HEL1     0.150000       1.00800           0
     17187 MEMB     150      SLPC     C213     CEL1    -0.150000       12.0110           0
     17188 MEMB     150      SLPC     H13R     HEL1     0.150000       1.00800           0
     17189 MEMB     150      SLPC     C214     CTL2    -0.180000       12.0110           0
     17190 MEMB     150      SLPC     H14R     HAL2     0.900000E-01   1.00800           0
     17191 MEMB     150      SLPC     H14S     HAL2     0.900000E-01   1.00800           0
     17192 MEMB     150      SLPC     C215     CTL2    -0.180000       12.0110           0
     17193 MEMB     150      SLPC     H15R     HAL2     0.900000E-01   1.00800           0
     17194 MEMB     150      SLPC     H15S     HAL2     0.900000E-01   1.00800           0
     17195 MEMB     150      SLPC     C216     CTL2    -0.180000       12.0110           0
     17196 MEMB     150      SLPC     H16R     HAL2     0.900000E-01   1.00800           0
     17197 MEMB     150      SLPC     H16S     HAL2     0.900000E-01   1.00800           0
     17198 MEMB     150      SLPC     C217     CTL2    -0.180000       12.0110           0
     17199 MEMB     150      SLPC     H17R     HAL2     0.900000E-01   1.00800           0
     17200 MEMB     150      SLPC     H17S     HAL2     0.900000E-01   1.00800           0
     17201 MEMB     150      SLPC     C218     CTL3    -0.270000       12.0110           0
     17202 MEMB     150      SLPC     H18R     HAL3     0.900000E-01   1.00800           0
     17203 MEMB     150      SLPC     H18S     HAL3     0.900000E-01   1.00800           0
     17204 MEMB     150      SLPC     H18T     HAL3     0.900000E-01   1.00800           0
     17205 MEMB     150      SLPC     C33      CTL2    -0.180000       12.0110           0
     17206 MEMB     150      SLPC     H3X      HAL2     0.900000E-01   1.00800           0
     17207 MEMB     150      SLPC     H3Y      HAL2     0.900000E-01   1.00800           0
     17208 MEMB     150      SLPC     C34      CTL2    -0.180000       12.0110           0
     17209 MEMB     150      SLPC     H4X      HAL2     0.900000E-01   1.00800           0
     17210 MEMB     150      SLPC     H4Y      HAL2     0.900000E-01   1.00800           0
     17211 MEMB     150      SLPC     C35      CTL2    -0.180000       12.0110           0
     17212 MEMB     150      SLPC     H5X      HAL2     0.900000E-01   1.00800           0
     17213 MEMB     150      SLPC     H5Y      HAL2     0.900000E-01   1.00800           0
     17214 MEMB     150      SLPC     C36      CTL2    -0.180000       12.0110           0
     17215 MEMB     150      SLPC     H6X      HAL2     0.900000E-01   1.00800           0
     17216 MEMB     150      SLPC     H6Y      HAL2     0.900000E-01   1.00800           0
     17217 MEMB     150      SLPC     C37      CTL2    -0.180000       12.0110           0
     17218 MEMB     150      SLPC     H7X      HAL2     0.900000E-01   1.00800           0
     17219 MEMB     150      SLPC     H7Y      HAL2     0.900000E-01   1.00800           0
     17220 MEMB     150      SLPC     C38      CTL2    -0.180000       12.0110           0
     17221 MEMB     150      SLPC     H8X      HAL2     0.900000E-01   1.00800           0
     17222 MEMB     150      SLPC     H8Y      HAL2     0.900000E-01   1.00800           0
     17223 MEMB     150      SLPC     C39      CTL2    -0.180000       12.0110           0
     17224 MEMB     150      SLPC     H9X      HAL2     0.900000E-01   1.00800           0
     17225 MEMB     150      SLPC     H9Y      HAL2     0.900000E-01   1.00800           0
     17226 MEMB     150      SLPC     C310     CTL2    -0.180000       12.0110           0
     17227 MEMB     150      SLPC     H10X     HAL2     0.900000E-01   1.00800           0
     17228 MEMB     150      SLPC     H10Y     HAL2     0.900000E-01   1.00800           0
     17229 MEMB     150      SLPC     C311     CTL2    -0.180000       12.0110           0
     17230 MEMB     150      SLPC     H11X     HAL2     0.900000E-01   1.00800           0
     17231 MEMB     150      SLPC     H11Y     HAL2     0.900000E-01   1.00800           0
     17232 MEMB     150      SLPC     C312     CTL2    -0.180000       12.0110           0
     17233 MEMB     150      SLPC     H12X     HAL2     0.900000E-01   1.00800           0
     17234 MEMB     150      SLPC     H12Y     HAL2     0.900000E-01   1.00800           0
     17235 MEMB     150      SLPC     C313     CTL2    -0.180000       12.0110           0
     17236 MEMB     150      SLPC     H13X     HAL2     0.900000E-01   1.00800           0
     17237 MEMB     150      SLPC     H13Y     HAL2     0.900000E-01   1.00800           0
     17238 MEMB     150      SLPC     C314     CTL2    -0.180000       12.0110           0
     17239 MEMB     150      SLPC     H14X     HAL2     0.900000E-01   1.00800           0
     17240 MEMB     150      SLPC     H14Y     HAL2     0.900000E-01   1.00800           0
     17241 MEMB     150      SLPC     C315     CTL2    -0.180000       12.0110           0
     17242 MEMB     150      SLPC     H15X     HAL2     0.900000E-01   1.00800           0
     17243 MEMB     150      SLPC     H15Y     HAL2     0.900000E-01   1.00800           0
     17244 MEMB     150      SLPC     C316     CTL2    -0.180000       12.0110           0
     17245 MEMB     150      SLPC     H16X     HAL2     0.900000E-01   1.00800           0
     17246 MEMB     150      SLPC     H16Y     HAL2     0.900000E-01   1.00800           0
     17247 MEMB     150      SLPC     C317     CTL2    -0.180000       12.0110           0
     17248 MEMB     150      SLPC     H17X     HAL2     0.900000E-01   1.00800           0
     17249 MEMB     150      SLPC     H17Y     HAL2     0.900000E-01   1.00800           0
     17250 MEMB     150      SLPC     C318     CTL3    -0.270000       12.0110           0
     17251 MEMB     150      SLPC     H18X     HAL3     0.900000E-01   1.00800           0
     17252 MEMB     150      SLPC     H18Y     HAL3     0.900000E-01   1.00800           0
     17253 MEMB     150      SLPC     H18Z     HAL3     0.900000E-01   1.00800           0
     17254 MEMB     151      CHL1     C3       CRL1     0.140000       12.0110           0
     17255 MEMB     151      CHL1     H3       HGA1     0.900000E-01   1.00800           0
     17256 MEMB     151      CHL1     O3       OHL     -0.660000       15.9994           0
     17257 MEMB     151      CHL1     H3'      HOL      0.430000       1.00800           0
     17258 MEMB     151      CHL1     C4       CRL2    -0.180000       12.0110           0
     17259 MEMB     151      CHL1     H4A      HGA2     0.900000E-01   1.00800           0
     17260 MEMB     151      CHL1     H4B      HGA2     0.900000E-01   1.00800           0
     17261 MEMB     151      CHL1     C5       CEL1      0.00000       12.0110           0
     17262 MEMB     151      CHL1     C6       CEL1    -0.150000       12.0110           0
     17263 MEMB     151      CHL1     H6       HEL1     0.150000       1.00800           0
     17264 MEMB     151      CHL1     C7       CRL2    -0.180000       12.0110           0
     17265 MEMB     151      CHL1     H7A      HGA2     0.900000E-01   1.00800           0
     17266 MEMB     151      CHL1     H7B      HGA2     0.900000E-01   1.00800           0
     17267 MEMB     151      CHL1     C8       CRL1    -0.900000E-01   12.0110           0
     17268 MEMB     151      CHL1     H8       HGA1     0.900000E-01   1.00800           0
     17269 MEMB     151      CHL1     C14      CRL1    -0.900000E-01   12.0110           0
     17270 MEMB     151      CHL1     H14      HGA1     0.900000E-01   1.00800           0
     17271 MEMB     151      CHL1     C15      CRL2    -0.180000       12.0110           0
     17272 MEMB     151      CHL1     H15A     HGA2     0.900000E-01   1.00800           0
     17273 MEMB     151      CHL1     H15B     HGA2     0.900000E-01   1.00800           0
     17274 MEMB     151      CHL1     C16      CRL2    -0.180000       12.0110           0
     17275 MEMB     151      CHL1     H16A     HGA2     0.900000E-01   1.00800           0
     17276 MEMB     151      CHL1     H16B     HGA2     0.900000E-01   1.00800           0
     17277 MEMB     151      CHL1     C17      CRL1    -0.900000E-01   12.0110           0
     17278 MEMB     151      CHL1     H17      HGA1     0.900000E-01   1.00800           0
     17279 MEMB     151      CHL1     C13      CRL1      0.00000       12.0110           0
     17280 MEMB     151      CHL1     C18      CTL3    -0.270000       12.0110           0
     17281 MEMB     151      CHL1     H18A     HAL3     0.900000E-01   1.00800           0
     17282 MEMB     151      CHL1     H18B     HAL3     0.900000E-01   1.00800           0
     17283 MEMB     151      CHL1     H18C     HAL3     0.900000E-01   1.00800           0
     17284 MEMB     151      CHL1     C12      CRL2    -0.180000       12.0110           0
     17285 MEMB     151      CHL1     H12A     HGA2     0.900000E-01   1.00800           0
     17286 MEMB     151      CHL1     H12B     HGA2     0.900000E-01   1.00800           0
     17287 MEMB     151      CHL1     C11      CRL2    -0.180000       12.0110           0
     17288 MEMB     151      CHL1     H11A     HGA2     0.900000E-01   1.00800           0
     17289 MEMB     151      CHL1     H11B     HGA2     0.900000E-01   1.00800           0
     17290 MEMB     151      CHL1     C9       CRL1    -0.900000E-01   12.0110           0
     17291 MEMB     151      CHL1     H9       HGA1     0.900000E-01   1.00800           0
     17292 MEMB     151      CHL1     C10      CRL1      0.00000       12.0110           0
     17293 MEMB     151      CHL1     C19      CTL3    -0.270000       12.0110           0
     17294 MEMB     151      CHL1     H19A     HAL3     0.900000E-01   1.00800           0
     17295 MEMB     151      CHL1     H19B     HAL3     0.900000E-01   1.00800           0
     17296 MEMB     151      CHL1     H19C     HAL3     0.900000E-01   1.00800           0
     17297 MEMB     151      CHL1     C1       CRL2    -0.180000       12.0110           0
     17298 MEMB     151      CHL1     H1A      HGA2     0.900000E-01   1.00800           0
     17299 MEMB     151      CHL1     H1B      HGA2     0.900000E-01   1.00800           0
     17300 MEMB     151      CHL1     C2       CRL2    -0.180000       12.0110           0
     17301 MEMB     151      CHL1     H2A      HGA2     0.900000E-01   1.00800           0
     17302 MEMB     151      CHL1     H2B      HGA2     0.900000E-01   1.00800           0
     17303 MEMB     151      CHL1     C20      CTL1    -0.900000E-01   12.0110           0
     17304 MEMB     151      CHL1     H20      HAL1     0.900000E-01   1.00800           0
     17305 MEMB     151      CHL1     C21      CTL3    -0.270000       12.0110           0
     17306 MEMB     151      CHL1     H21A     HAL3     0.900000E-01   1.00800           0
     17307 MEMB     151      CHL1     H21B     HAL3     0.900000E-01   1.00800           0
     17308 MEMB     151      CHL1     H21C     HAL3     0.900000E-01   1.00800           0
     17309 MEMB     151      CHL1     C22      CTL2    -0.180000       12.0110           0
     17310 MEMB     151      CHL1     H22A     HAL2     0.900000E-01   1.00800           0
     17311 MEMB     151      CHL1     H22B     HAL2     0.900000E-01   1.00800           0
     17312 MEMB     151      CHL1     C23      CTL2    -0.180000       12.0110           0
     17313 MEMB     151      CHL1     H23A     HAL2     0.900000E-01   1.00800           0
     17314 MEMB     151      CHL1     H23B     HAL2     0.900000E-01   1.00800           0
     17315 MEMB     151      CHL1     C24      CTL2    -0.180000       12.0110           0
     17316 MEMB     151      CHL1     H24A     HAL2     0.900000E-01   1.00800           0
     17317 MEMB     151      CHL1     H24B     HAL2     0.900000E-01   1.00800           0
     17318 MEMB     151      CHL1     C25      CTL1    -0.900000E-01   12.0110           0
     17319 MEMB     151      CHL1     H25      HAL1     0.900000E-01   1.00800           0
     17320 MEMB     151      CHL1     C26      CTL3    -0.270000       12.0110           0
     17321 MEMB     151      CHL1     H26A     HAL3     0.900000E-01   1.00800           0
     17322 MEMB     151      CHL1     H26B     HAL3     0.900000E-01   1.00800           0
     17323 MEMB     151      CHL1     H26C     HAL3     0.900000E-01   1.00800           0
     17324 MEMB     151      CHL1     C27      CTL3    -0.270000       12.0110           0
     17325 MEMB     151      CHL1     H27A     HAL3     0.900000E-01   1.00800           0
     17326 MEMB     151      CHL1     H27B     HAL3     0.900000E-01   1.00800           0
     17327 MEMB     151      CHL1     H27C     HAL3     0.900000E-01   1.00800           0
     17328 MEMB     152      SAPE     N        NH3L    -0.300000       14.0070           0
     17329 MEMB     152      SAPE     HN1      HCL      0.330000       1.00800           0
     17330 MEMB     152      SAPE     HN2      HCL      0.330000       1.00800           0
     17331 MEMB     152      SAPE     HN3      HCL      0.330000       1.00800           0
     17332 MEMB     152      SAPE     C12      CTL2     0.130000       12.0110           0
     17333 MEMB     152      SAPE     H12A     HAL2     0.900000E-01   1.00800           0
     17334 MEMB     152      SAPE     H12B     HAL2     0.900000E-01   1.00800           0
     17335 MEMB     152      SAPE     C11      CTL2    -0.800000E-01   12.0110           0
     17336 MEMB     152      SAPE     H11A     HAL2     0.900000E-01   1.00800           0
     17337 MEMB     152      SAPE     H11B     HAL2     0.900000E-01   1.00800           0
     17338 MEMB     152      SAPE     P        PL        1.50000       30.9740           0
     17339 MEMB     152      SAPE     O13      O2L     -0.780000       15.9994           0
     17340 MEMB     152      SAPE     O14      O2L     -0.780000       15.9994           0
     17341 MEMB     152      SAPE     O12      OSLP    -0.570000       15.9994           0
     17342 MEMB     152      SAPE     O11      OSLP    -0.570000       15.9994           0
     17343 MEMB     152      SAPE     C1       CTL2    -0.800000E-01   12.0110           0
     17344 MEMB     152      SAPE     HA       HAL2     0.900000E-01   1.00800           0
     17345 MEMB     152      SAPE     HB       HAL2     0.900000E-01   1.00800           0
     17346 MEMB     152      SAPE     C2       CTL1     0.170000       12.0110           0
     17347 MEMB     152      SAPE     HS       HAL1     0.900000E-01   1.00800           0
     17348 MEMB     152      SAPE     O21      OSL     -0.490000       15.9994           0
     17349 MEMB     152      SAPE     C21      CL       0.900000       12.0110           0
     17350 MEMB     152      SAPE     O22      OBL     -0.630000       15.9994           0
     17351 MEMB     152      SAPE     C22      CTL2    -0.220000       12.0110           0
     17352 MEMB     152      SAPE     H2R      HAL2     0.900000E-01   1.00800           0
     17353 MEMB     152      SAPE     H2S      HAL2     0.900000E-01   1.00800           0
     17354 MEMB     152      SAPE     C3       CTL2     0.800000E-01   12.0110           0
     17355 MEMB     152      SAPE     HX       HAL2     0.900000E-01   1.00800           0
     17356 MEMB     152      SAPE     HY       HAL2     0.900000E-01   1.00800           0
     17357 MEMB     152      SAPE     O31      OSL     -0.490000       15.9994           0
     17358 MEMB     152      SAPE     C31      CL       0.900000       12.0110           0
     17359 MEMB     152      SAPE     O32      OBL     -0.630000       15.9994           0
     17360 MEMB     152      SAPE     C32      CTL2    -0.220000       12.0110           0
     17361 MEMB     152      SAPE     H2X      HAL2     0.900000E-01   1.00800           0
     17362 MEMB     152      SAPE     H2Y      HAL2     0.900000E-01   1.00800           0
     17363 MEMB     152      SAPE     C23      CTL2    -0.180000       12.0110           0
     17364 MEMB     152      SAPE     H3R      HAL2     0.900000E-01   1.00800           0
     17365 MEMB     152      SAPE     H3S      HAL2     0.900000E-01   1.00800           0
     17366 MEMB     152      SAPE     C24      CTL2    -0.180000       12.0110           0
     17367 MEMB     152      SAPE     H4R      HAL2     0.900000E-01   1.00800           0
     17368 MEMB     152      SAPE     H4S      HAL2     0.900000E-01   1.00800           0
     17369 MEMB     152      SAPE     C25      CEL1    -0.150000       12.0110           0
     17370 MEMB     152      SAPE     H5R      HEL1     0.150000       1.00800           0
     17371 MEMB     152      SAPE     C26      CEL1    -0.150000       12.0110           0
     17372 MEMB     152      SAPE     H6R      HEL1     0.150000       1.00800           0
     17373 MEMB     152      SAPE     C27      CTL2    -0.180000       12.0110           0
     17374 MEMB     152      SAPE     H7R      HAL2     0.900000E-01   1.00800           0
     17375 MEMB     152      SAPE     H7S      HAL2     0.900000E-01   1.00800           0
     17376 MEMB     152      SAPE     C28      CEL1    -0.150000       12.0110           0
     17377 MEMB     152      SAPE     H8R      HEL1     0.150000       1.00800           0
     17378 MEMB     152      SAPE     C29      CEL1    -0.150000       12.0110           0
     17379 MEMB     152      SAPE     H9R      HEL1     0.150000       1.00800           0
     17380 MEMB     152      SAPE     C210     CTL2    -0.180000       12.0110           0
     17381 MEMB     152      SAPE     H10R     HAL2     0.900000E-01   1.00800           0
     17382 MEMB     152      SAPE     H10S     HAL2     0.900000E-01   1.00800           0
     17383 MEMB     152      SAPE     C211     CEL1    -0.150000       12.0110           0
     17384 MEMB     152      SAPE     H11R     HEL1     0.150000       1.00800           0
     17385 MEMB     152      SAPE     C212     CEL1    -0.150000       12.0110           0
     17386 MEMB     152      SAPE     H12R     HEL1     0.150000       1.00800           0
     17387 MEMB     152      SAPE     C213     CTL2    -0.180000       12.0110           0
     17388 MEMB     152      SAPE     H13R     HAL2     0.900000E-01   1.00800           0
     17389 MEMB     152      SAPE     H13S     HAL2     0.900000E-01   1.00800           0
     17390 MEMB     152      SAPE     C214     CEL1    -0.150000       12.0110           0
     17391 MEMB     152      SAPE     H14R     HEL1     0.150000       1.00800           0
     17392 MEMB     152      SAPE     C215     CEL1    -0.150000       12.0110           0
     17393 MEMB     152      SAPE     H15R     HEL1     0.150000       1.00800           0
     17394 MEMB     152      SAPE     C216     CTL2    -0.180000       12.0110           0
     17395 MEMB     152      SAPE     H16R     HAL2     0.900000E-01   1.00800           0
     17396 MEMB     152      SAPE     H16S     HAL2     0.900000E-01   1.00800           0
     17397 MEMB     152      SAPE     C217     CTL2    -0.180000       12.0110           0
     17398 MEMB     152      SAPE     H17R     HAL2     0.900000E-01   1.00800           0
     17399 MEMB     152      SAPE     H17S     HAL2     0.900000E-01   1.00800           0
     17400 MEMB     152      SAPE     C218     CTL2    -0.180000       12.0110           0
     17401 MEMB     152      SAPE     H18R     HAL2     0.900000E-01   1.00800           0
     17402 MEMB     152      SAPE     H18S     HAL2     0.900000E-01   1.00800           0
     17403 MEMB     152      SAPE     C219     CTL2    -0.180000       12.0110           0
     17404 MEMB     152      SAPE     H19R     HAL2     0.900000E-01   1.00800           0
     17405 MEMB     152      SAPE     H19S     HAL2     0.900000E-01   1.00800           0
     17406 MEMB     152      SAPE     C220     CTL3    -0.270000       12.0110           0
     17407 MEMB     152      SAPE     H20R     HAL3     0.900000E-01   1.00800           0
     17408 MEMB     152      SAPE     H20S     HAL3     0.900000E-01   1.00800           0
     17409 MEMB     152      SAPE     H20T     HAL3     0.900000E-01   1.00800           0
     17410 MEMB     152      SAPE     C33      CTL2    -0.180000       12.0110           0
     17411 MEMB     152      SAPE     H3X      HAL2     0.900000E-01   1.00800           0
     17412 MEMB     152      SAPE     H3Y      HAL2     0.900000E-01   1.00800           0
     17413 MEMB     152      SAPE     C34      CTL2    -0.180000       12.0110           0
     17414 MEMB     152      SAPE     H4X      HAL2     0.900000E-01   1.00800           0
     17415 MEMB     152      SAPE     H4Y      HAL2     0.900000E-01   1.00800           0
     17416 MEMB     152      SAPE     C35      CTL2    -0.180000       12.0110           0
     17417 MEMB     152      SAPE     H5X      HAL2     0.900000E-01   1.00800           0
     17418 MEMB     152      SAPE     H5Y      HAL2     0.900000E-01   1.00800           0
     17419 MEMB     152      SAPE     C36      CTL2    -0.180000       12.0110           0
     17420 MEMB     152      SAPE     H6X      HAL2     0.900000E-01   1.00800           0
     17421 MEMB     152      SAPE     H6Y      HAL2     0.900000E-01   1.00800           0
     17422 MEMB     152      SAPE     C37      CTL2    -0.180000       12.0110           0
     17423 MEMB     152      SAPE     H7X      HAL2     0.900000E-01   1.00800           0
     17424 MEMB     152      SAPE     H7Y      HAL2     0.900000E-01   1.00800           0
     17425 MEMB     152      SAPE     C38      CTL2    -0.180000       12.0110           0
     17426 MEMB     152      SAPE     H8X      HAL2     0.900000E-01   1.00800           0
     17427 MEMB     152      SAPE     H8Y      HAL2     0.900000E-01   1.00800           0
     17428 MEMB     152      SAPE     C39      CTL2    -0.180000       12.0110           0
     17429 MEMB     152      SAPE     H9X      HAL2     0.900000E-01   1.00800           0
     17430 MEMB     152      SAPE     H9Y      HAL2     0.900000E-01   1.00800           0
     17431 MEMB     152      SAPE     C310     CTL2    -0.180000       12.0110           0
     17432 MEMB     152      SAPE     H10X     HAL2     0.900000E-01   1.00800           0
     17433 MEMB     152      SAPE     H10Y     HAL2     0.900000E-01   1.00800           0
     17434 MEMB     152      SAPE     C311     CTL2    -0.180000       12.0110           0
     17435 MEMB     152      SAPE     H11X     HAL2     0.900000E-01   1.00800           0
     17436 MEMB     152      SAPE     H11Y     HAL2     0.900000E-01   1.00800           0
     17437 MEMB     152      SAPE     C312     CTL2    -0.180000       12.0110           0
     17438 MEMB     152      SAPE     H12X     HAL2     0.900000E-01   1.00800           0
     17439 MEMB     152      SAPE     H12Y     HAL2     0.900000E-01   1.00800           0
     17440 MEMB     152      SAPE     C313     CTL2    -0.180000       12.0110           0
     17441 MEMB     152      SAPE     H13X     HAL2     0.900000E-01   1.00800           0
     17442 MEMB     152      SAPE     H13Y     HAL2     0.900000E-01   1.00800           0
     17443 MEMB     152      SAPE     C314     CTL2    -0.180000       12.0110           0
     17444 MEMB     152      SAPE     H14X     HAL2     0.900000E-01   1.00800           0
     17445 MEMB     152      SAPE     H14Y     HAL2     0.900000E-01   1.00800           0
     17446 MEMB     152      SAPE     C315     CTL2    -0.180000       12.0110           0
     17447 MEMB     152      SAPE     H15X     HAL2     0.900000E-01   1.00800           0
     17448 MEMB     152      SAPE     H15Y     HAL2     0.900000E-01   1.00800           0
     17449 MEMB     152      SAPE     C316     CTL2    -0.180000       12.0110           0
     17450 MEMB     152      SAPE     H16X     HAL2     0.900000E-01   1.00800           0
     17451 MEMB     152      SAPE     H16Y     HAL2     0.900000E-01   1.00800           0
     17452 MEMB     152      SAPE     C317     CTL2    -0.180000       12.0110           0
     17453 MEMB     152      SAPE     H17X     HAL2     0.900000E-01   1.00800           0
     17454 MEMB     152      SAPE     H17Y     HAL2     0.900000E-01   1.00800           0
     17455 MEMB     152      SAPE     C318     CTL3    -0.270000       12.0110           0
     17456 MEMB     152      SAPE     H18X     HAL3     0.900000E-01   1.00800           0
     17457 MEMB     152      SAPE     H18Y     HAL3     0.900000E-01   1.00800           0
     17458 MEMB     152      SAPE     H18Z     HAL3     0.900000E-01   1.00800           0
     17459 MEMB     153      CHL1     C3       CRL1     0.140000       12.0110           0
     17460 MEMB     153      CHL1     H3       HGA1     0.900000E-01   1.00800           0
     17461 MEMB     153      CHL1     O3       OHL     -0.660000       15.9994           0
     17462 MEMB     153      CHL1     H3'      HOL      0.430000       1.00800           0
     17463 MEMB     153      CHL1     C4       CRL2    -0.180000       12.0110           0
     17464 MEMB     153      CHL1     H4A      HGA2     0.900000E-01   1.00800           0
     17465 MEMB     153      CHL1     H4B      HGA2     0.900000E-01   1.00800           0
     17466 MEMB     153      CHL1     C5       CEL1      0.00000       12.0110           0
     17467 MEMB     153      CHL1     C6       CEL1    -0.150000       12.0110           0
     17468 MEMB     153      CHL1     H6       HEL1     0.150000       1.00800           0
     17469 MEMB     153      CHL1     C7       CRL2    -0.180000       12.0110           0
     17470 MEMB     153      CHL1     H7A      HGA2     0.900000E-01   1.00800           0
     17471 MEMB     153      CHL1     H7B      HGA2     0.900000E-01   1.00800           0
     17472 MEMB     153      CHL1     C8       CRL1    -0.900000E-01   12.0110           0
     17473 MEMB     153      CHL1     H8       HGA1     0.900000E-01   1.00800           0
     17474 MEMB     153      CHL1     C14      CRL1    -0.900000E-01   12.0110           0
     17475 MEMB     153      CHL1     H14      HGA1     0.900000E-01   1.00800           0
     17476 MEMB     153      CHL1     C15      CRL2    -0.180000       12.0110           0
     17477 MEMB     153      CHL1     H15A     HGA2     0.900000E-01   1.00800           0
     17478 MEMB     153      CHL1     H15B     HGA2     0.900000E-01   1.00800           0
     17479 MEMB     153      CHL1     C16      CRL2    -0.180000       12.0110           0
     17480 MEMB     153      CHL1     H16A     HGA2     0.900000E-01   1.00800           0
     17481 MEMB     153      CHL1     H16B     HGA2     0.900000E-01   1.00800           0
     17482 MEMB     153      CHL1     C17      CRL1    -0.900000E-01   12.0110           0
     17483 MEMB     153      CHL1     H17      HGA1     0.900000E-01   1.00800           0
     17484 MEMB     153      CHL1     C13      CRL1      0.00000       12.0110           0
     17485 MEMB     153      CHL1     C18      CTL3    -0.270000       12.0110           0
     17486 MEMB     153      CHL1     H18A     HAL3     0.900000E-01   1.00800           0
     17487 MEMB     153      CHL1     H18B     HAL3     0.900000E-01   1.00800           0
     17488 MEMB     153      CHL1     H18C     HAL3     0.900000E-01   1.00800           0
     17489 MEMB     153      CHL1     C12      CRL2    -0.180000       12.0110           0
     17490 MEMB     153      CHL1     H12A     HGA2     0.900000E-01   1.00800           0
     17491 MEMB     153      CHL1     H12B     HGA2     0.900000E-01   1.00800           0
     17492 MEMB     153      CHL1     C11      CRL2    -0.180000       12.0110           0
     17493 MEMB     153      CHL1     H11A     HGA2     0.900000E-01   1.00800           0
     17494 MEMB     153      CHL1     H11B     HGA2     0.900000E-01   1.00800           0
     17495 MEMB     153      CHL1     C9       CRL1    -0.900000E-01   12.0110           0
     17496 MEMB     153      CHL1     H9       HGA1     0.900000E-01   1.00800           0
     17497 MEMB     153      CHL1     C10      CRL1      0.00000       12.0110           0
     17498 MEMB     153      CHL1     C19      CTL3    -0.270000       12.0110           0
     17499 MEMB     153      CHL1     H19A     HAL3     0.900000E-01   1.00800           0
     17500 MEMB     153      CHL1     H19B     HAL3     0.900000E-01   1.00800           0
     17501 MEMB     153      CHL1     H19C     HAL3     0.900000E-01   1.00800           0
     17502 MEMB     153      CHL1     C1       CRL2    -0.180000       12.0110           0
     17503 MEMB     153      CHL1     H1A      HGA2     0.900000E-01   1.00800           0
     17504 MEMB     153      CHL1     H1B      HGA2     0.900000E-01   1.00800           0
     17505 MEMB     153      CHL1     C2       CRL2    -0.180000       12.0110           0
     17506 MEMB     153      CHL1     H2A      HGA2     0.900000E-01   1.00800           0
     17507 MEMB     153      CHL1     H2B      HGA2     0.900000E-01   1.00800           0
     17508 MEMB     153      CHL1     C20      CTL1    -0.900000E-01   12.0110           0
     17509 MEMB     153      CHL1     H20      HAL1     0.900000E-01   1.00800           0
     17510 MEMB     153      CHL1     C21      CTL3    -0.270000       12.0110           0
     17511 MEMB     153      CHL1     H21A     HAL3     0.900000E-01   1.00800           0
     17512 MEMB     153      CHL1     H21B     HAL3     0.900000E-01   1.00800           0
     17513 MEMB     153      CHL1     H21C     HAL3     0.900000E-01   1.00800           0
     17514 MEMB     153      CHL1     C22      CTL2    -0.180000       12.0110           0
     17515 MEMB     153      CHL1     H22A     HAL2     0.900000E-01   1.00800           0
     17516 MEMB     153      CHL1     H22B     HAL2     0.900000E-01   1.00800           0
     17517 MEMB     153      CHL1     C23      CTL2    -0.180000       12.0110           0
     17518 MEMB     153      CHL1     H23A     HAL2     0.900000E-01   1.00800           0
     17519 MEMB     153      CHL1     H23B     HAL2     0.900000E-01   1.00800           0
     17520 MEMB     153      CHL1     C24      CTL2    -0.180000       12.0110           0
     17521 MEMB     153      CHL1     H24A     HAL2     0.900000E-01   1.00800           0
     17522 MEMB     153      CHL1     H24B     HAL2     0.900000E-01   1.00800           0
     17523 MEMB     153      CHL1     C25      CTL1    -0.900000E-01   12.0110           0
     17524 MEMB     153      CHL1     H25      HAL1     0.900000E-01   1.00800           0
     17525 MEMB     153      CHL1     C26      CTL3    -0.270000       12.0110           0
     17526 MEMB     153      CHL1     H26A     HAL3     0.900000E-01   1.00800           0
     17527 MEMB     153      CHL1     H26B     HAL3     0.900000E-01   1.00800           0
     17528 MEMB     153      CHL1     H26C     HAL3     0.900000E-01   1.00800           0
     17529 MEMB     153      CHL1     C27      CTL3    -0.270000       12.0110           0
     17530 MEMB     153      CHL1     H27A     HAL3     0.900000E-01   1.00800           0
     17531 MEMB     153      CHL1     H27B     HAL3     0.900000E-01   1.00800           0
     17532 MEMB     153      CHL1     H27C     HAL3     0.900000E-01   1.00800           0
     17533 MEMB     154      SAPE     N        NH3L    -0.300000       14.0070           0
     17534 MEMB     154      SAPE     HN1      HCL      0.330000       1.00800           0
     17535 MEMB     154      SAPE     HN2      HCL      0.330000       1.00800           0
     17536 MEMB     154      SAPE     HN3      HCL      0.330000       1.00800           0
     17537 MEMB     154      SAPE     C12      CTL2     0.130000       12.0110           0
     17538 MEMB     154      SAPE     H12A     HAL2     0.900000E-01   1.00800           0
     17539 MEMB     154      SAPE     H12B     HAL2     0.900000E-01   1.00800           0
     17540 MEMB     154      SAPE     C11      CTL2    -0.800000E-01   12.0110           0
     17541 MEMB     154      SAPE     H11A     HAL2     0.900000E-01   1.00800           0
     17542 MEMB     154      SAPE     H11B     HAL2     0.900000E-01   1.00800           0
     17543 MEMB     154      SAPE     P        PL        1.50000       30.9740           0
     17544 MEMB     154      SAPE     O13      O2L     -0.780000       15.9994           0
     17545 MEMB     154      SAPE     O14      O2L     -0.780000       15.9994           0
     17546 MEMB     154      SAPE     O12      OSLP    -0.570000       15.9994           0
     17547 MEMB     154      SAPE     O11      OSLP    -0.570000       15.9994           0
     17548 MEMB     154      SAPE     C1       CTL2    -0.800000E-01   12.0110           0
     17549 MEMB     154      SAPE     HA       HAL2     0.900000E-01   1.00800           0
     17550 MEMB     154      SAPE     HB       HAL2     0.900000E-01   1.00800           0
     17551 MEMB     154      SAPE     C2       CTL1     0.170000       12.0110           0
     17552 MEMB     154      SAPE     HS       HAL1     0.900000E-01   1.00800           0
     17553 MEMB     154      SAPE     O21      OSL     -0.490000       15.9994           0
     17554 MEMB     154      SAPE     C21      CL       0.900000       12.0110           0
     17555 MEMB     154      SAPE     O22      OBL     -0.630000       15.9994           0
     17556 MEMB     154      SAPE     C22      CTL2    -0.220000       12.0110           0
     17557 MEMB     154      SAPE     H2R      HAL2     0.900000E-01   1.00800           0
     17558 MEMB     154      SAPE     H2S      HAL2     0.900000E-01   1.00800           0
     17559 MEMB     154      SAPE     C3       CTL2     0.800000E-01   12.0110           0
     17560 MEMB     154      SAPE     HX       HAL2     0.900000E-01   1.00800           0
     17561 MEMB     154      SAPE     HY       HAL2     0.900000E-01   1.00800           0
     17562 MEMB     154      SAPE     O31      OSL     -0.490000       15.9994           0
     17563 MEMB     154      SAPE     C31      CL       0.900000       12.0110           0
     17564 MEMB     154      SAPE     O32      OBL     -0.630000       15.9994           0
     17565 MEMB     154      SAPE     C32      CTL2    -0.220000       12.0110           0
     17566 MEMB     154      SAPE     H2X      HAL2     0.900000E-01   1.00800           0
     17567 MEMB     154      SAPE     H2Y      HAL2     0.900000E-01   1.00800           0
     17568 MEMB     154      SAPE     C23      CTL2    -0.180000       12.0110           0
     17569 MEMB     154      SAPE     H3R      HAL2     0.900000E-01   1.00800           0
     17570 MEMB     154      SAPE     H3S      HAL2     0.900000E-01   1.00800           0
     17571 MEMB     154      SAPE     C24      CTL2    -0.180000       12.0110           0
     17572 MEMB     154      SAPE     H4R      HAL2     0.900000E-01   1.00800           0
     17573 MEMB     154      SAPE     H4S      HAL2     0.900000E-01   1.00800           0
     17574 MEMB     154      SAPE     C25      CEL1    -0.150000       12.0110           0
     17575 MEMB     154      SAPE     H5R      HEL1     0.150000       1.00800           0
     17576 MEMB     154      SAPE     C26      CEL1    -0.150000       12.0110           0
     17577 MEMB     154      SAPE     H6R      HEL1     0.150000       1.00800           0
     17578 MEMB     154      SAPE     C27      CTL2    -0.180000       12.0110           0
     17579 MEMB     154      SAPE     H7R      HAL2     0.900000E-01   1.00800           0
     17580 MEMB     154      SAPE     H7S      HAL2     0.900000E-01   1.00800           0
     17581 MEMB     154      SAPE     C28      CEL1    -0.150000       12.0110           0
     17582 MEMB     154      SAPE     H8R      HEL1     0.150000       1.00800           0
     17583 MEMB     154      SAPE     C29      CEL1    -0.150000       12.0110           0
     17584 MEMB     154      SAPE     H9R      HEL1     0.150000       1.00800           0
     17585 MEMB     154      SAPE     C210     CTL2    -0.180000       12.0110           0
     17586 MEMB     154      SAPE     H10R     HAL2     0.900000E-01   1.00800           0
     17587 MEMB     154      SAPE     H10S     HAL2     0.900000E-01   1.00800           0
     17588 MEMB     154      SAPE     C211     CEL1    -0.150000       12.0110           0
     17589 MEMB     154      SAPE     H11R     HEL1     0.150000       1.00800           0
     17590 MEMB     154      SAPE     C212     CEL1    -0.150000       12.0110           0
     17591 MEMB     154      SAPE     H12R     HEL1     0.150000       1.00800           0
     17592 MEMB     154      SAPE     C213     CTL2    -0.180000       12.0110           0
     17593 MEMB     154      SAPE     H13R     HAL2     0.900000E-01   1.00800           0
     17594 MEMB     154      SAPE     H13S     HAL2     0.900000E-01   1.00800           0
     17595 MEMB     154      SAPE     C214     CEL1    -0.150000       12.0110           0
     17596 MEMB     154      SAPE     H14R     HEL1     0.150000       1.00800           0
     17597 MEMB     154      SAPE     C215     CEL1    -0.150000       12.0110           0
     17598 MEMB     154      SAPE     H15R     HEL1     0.150000       1.00800           0
     17599 MEMB     154      SAPE     C216     CTL2    -0.180000       12.0110           0
     17600 MEMB     154      SAPE     H16R     HAL2     0.900000E-01   1.00800           0
     17601 MEMB     154      SAPE     H16S     HAL2     0.900000E-01   1.00800           0
     17602 MEMB     154      SAPE     C217     CTL2    -0.180000       12.0110           0
     17603 MEMB     154      SAPE     H17R     HAL2     0.900000E-01   1.00800           0
     17604 MEMB     154      SAPE     H17S     HAL2     0.900000E-01   1.00800           0
     17605 MEMB     154      SAPE     C218     CTL2    -0.180000       12.0110           0
     17606 MEMB     154      SAPE     H18R     HAL2     0.900000E-01   1.00800           0
     17607 MEMB     154      SAPE     H18S     HAL2     0.900000E-01   1.00800           0
     17608 MEMB     154      SAPE     C219     CTL2    -0.180000       12.0110           0
     17609 MEMB     154      SAPE     H19R     HAL2     0.900000E-01   1.00800           0
     17610 MEMB     154      SAPE     H19S     HAL2     0.900000E-01   1.00800           0
     17611 MEMB     154      SAPE     C220     CTL3    -0.270000       12.0110           0
     17612 MEMB     154      SAPE     H20R     HAL3     0.900000E-01   1.00800           0
     17613 MEMB     154      SAPE     H20S     HAL3     0.900000E-01   1.00800           0
     17614 MEMB     154      SAPE     H20T     HAL3     0.900000E-01   1.00800           0
     17615 MEMB     154      SAPE     C33      CTL2    -0.180000       12.0110           0
     17616 MEMB     154      SAPE     H3X      HAL2     0.900000E-01   1.00800           0
     17617 MEMB     154      SAPE     H3Y      HAL2     0.900000E-01   1.00800           0
     17618 MEMB     154      SAPE     C34      CTL2    -0.180000       12.0110           0
     17619 MEMB     154      SAPE     H4X      HAL2     0.900000E-01   1.00800           0
     17620 MEMB     154      SAPE     H4Y      HAL2     0.900000E-01   1.00800           0
     17621 MEMB     154      SAPE     C35      CTL2    -0.180000       12.0110           0
     17622 MEMB     154      SAPE     H5X      HAL2     0.900000E-01   1.00800           0
     17623 MEMB     154      SAPE     H5Y      HAL2     0.900000E-01   1.00800           0
     17624 MEMB     154      SAPE     C36      CTL2    -0.180000       12.0110           0
     17625 MEMB     154      SAPE     H6X      HAL2     0.900000E-01   1.00800           0
     17626 MEMB     154      SAPE     H6Y      HAL2     0.900000E-01   1.00800           0
     17627 MEMB     154      SAPE     C37      CTL2    -0.180000       12.0110           0
     17628 MEMB     154      SAPE     H7X      HAL2     0.900000E-01   1.00800           0
     17629 MEMB     154      SAPE     H7Y      HAL2     0.900000E-01   1.00800           0
     17630 MEMB     154      SAPE     C38      CTL2    -0.180000       12.0110           0
     17631 MEMB     154      SAPE     H8X      HAL2     0.900000E-01   1.00800           0
     17632 MEMB     154      SAPE     H8Y      HAL2     0.900000E-01   1.00800           0
     17633 MEMB     154      SAPE     C39      CTL2    -0.180000       12.0110           0
     17634 MEMB     154      SAPE     H9X      HAL2     0.900000E-01   1.00800           0
     17635 MEMB     154      SAPE     H9Y      HAL2     0.900000E-01   1.00800           0
     17636 MEMB     154      SAPE     C310     CTL2    -0.180000       12.0110           0
     17637 MEMB     154      SAPE     H10X     HAL2     0.900000E-01   1.00800           0
     17638 MEMB     154      SAPE     H10Y     HAL2     0.900000E-01   1.00800           0
     17639 MEMB     154      SAPE     C311     CTL2    -0.180000       12.0110           0
     17640 MEMB     154      SAPE     H11X     HAL2     0.900000E-01   1.00800           0
     17641 MEMB     154      SAPE     H11Y     HAL2     0.900000E-01   1.00800           0
     17642 MEMB     154      SAPE     C312     CTL2    -0.180000       12.0110           0
     17643 MEMB     154      SAPE     H12X     HAL2     0.900000E-01   1.00800           0
     17644 MEMB     154      SAPE     H12Y     HAL2     0.900000E-01   1.00800           0
     17645 MEMB     154      SAPE     C313     CTL2    -0.180000       12.0110           0
     17646 MEMB     154      SAPE     H13X     HAL2     0.900000E-01   1.00800           0
     17647 MEMB     154      SAPE     H13Y     HAL2     0.900000E-01   1.00800           0
     17648 MEMB     154      SAPE     C314     CTL2    -0.180000       12.0110           0
     17649 MEMB     154      SAPE     H14X     HAL2     0.900000E-01   1.00800           0
     17650 MEMB     154      SAPE     H14Y     HAL2     0.900000E-01   1.00800           0
     17651 MEMB     154      SAPE     C315     CTL2    -0.180000       12.0110           0
     17652 MEMB     154      SAPE     H15X     HAL2     0.900000E-01   1.00800           0
     17653 MEMB     154      SAPE     H15Y     HAL2     0.900000E-01   1.00800           0
     17654 MEMB     154      SAPE     C316     CTL2    -0.180000       12.0110           0
     17655 MEMB     154      SAPE     H16X     HAL2     0.900000E-01   1.00800           0
     17656 MEMB     154      SAPE     H16Y     HAL2     0.900000E-01   1.00800           0
     17657 MEMB     154      SAPE     C317     CTL2    -0.180000       12.0110           0
     17658 MEMB     154      SAPE     H17X     HAL2     0.900000E-01   1.00800           0
     17659 MEMB     154      SAPE     H17Y     HAL2     0.900000E-01   1.00800           0
     17660 MEMB     154      SAPE     C318     CTL3    -0.270000       12.0110           0
     17661 MEMB     154      SAPE     H18X     HAL3     0.900000E-01   1.00800           0
     17662 MEMB     154      SAPE     H18Y     HAL3     0.900000E-01   1.00800           0
     17663 MEMB     154      SAPE     H18Z     HAL3     0.900000E-01   1.00800           0
     17664 MEMB     155      SOPE     N        NH3L    -0.300000       14.0070           0
     17665 MEMB     155      SOPE     HN1      HCL      0.330000       1.00800           0
     17666 MEMB     155      SOPE     HN2      HCL      0.330000       1.00800           0
     17667 MEMB     155      SOPE     HN3      HCL      0.330000       1.00800           0
     17668 MEMB     155      SOPE     C12      CTL2     0.130000       12.0110           0
     17669 MEMB     155      SOPE     H12A     HAL2     0.900000E-01   1.00800           0
     17670 MEMB     155      SOPE     H12B     HAL2     0.900000E-01   1.00800           0
     17671 MEMB     155      SOPE     C11      CTL2    -0.800000E-01   12.0110           0
     17672 MEMB     155      SOPE     H11A     HAL2     0.900000E-01   1.00800           0
     17673 MEMB     155      SOPE     H11B     HAL2     0.900000E-01   1.00800           0
     17674 MEMB     155      SOPE     P        PL        1.50000       30.9740           0
     17675 MEMB     155      SOPE     O13      O2L     -0.780000       15.9994           0
     17676 MEMB     155      SOPE     O14      O2L     -0.780000       15.9994           0
     17677 MEMB     155      SOPE     O12      OSLP    -0.570000       15.9994           0
     17678 MEMB     155      SOPE     O11      OSLP    -0.570000       15.9994           0
     17679 MEMB     155      SOPE     C1       CTL2    -0.800000E-01   12.0110           0
     17680 MEMB     155      SOPE     HA       HAL2     0.900000E-01   1.00800           0
     17681 MEMB     155      SOPE     HB       HAL2     0.900000E-01   1.00800           0
     17682 MEMB     155      SOPE     C2       CTL1     0.170000       12.0110           0
     17683 MEMB     155      SOPE     HS       HAL1     0.900000E-01   1.00800           0
     17684 MEMB     155      SOPE     O21      OSL     -0.490000       15.9994           0
     17685 MEMB     155      SOPE     C21      CL       0.900000       12.0110           0
     17686 MEMB     155      SOPE     O22      OBL     -0.630000       15.9994           0
     17687 MEMB     155      SOPE     C22      CTL2    -0.220000       12.0110           0
     17688 MEMB     155      SOPE     H2R      HAL2     0.900000E-01   1.00800           0
     17689 MEMB     155      SOPE     H2S      HAL2     0.900000E-01   1.00800           0
     17690 MEMB     155      SOPE     C3       CTL2     0.800000E-01   12.0110           0
     17691 MEMB     155      SOPE     HX       HAL2     0.900000E-01   1.00800           0
     17692 MEMB     155      SOPE     HY       HAL2     0.900000E-01   1.00800           0
     17693 MEMB     155      SOPE     O31      OSL     -0.490000       15.9994           0
     17694 MEMB     155      SOPE     C31      CL       0.900000       12.0110           0
     17695 MEMB     155      SOPE     O32      OBL     -0.630000       15.9994           0
     17696 MEMB     155      SOPE     C32      CTL2    -0.220000       12.0110           0
     17697 MEMB     155      SOPE     H2X      HAL2     0.900000E-01   1.00800           0
     17698 MEMB     155      SOPE     H2Y      HAL2     0.900000E-01   1.00800           0
     17699 MEMB     155      SOPE     C23      CTL2    -0.180000       12.0110           0
     17700 MEMB     155      SOPE     H3R      HAL2     0.900000E-01   1.00800           0
     17701 MEMB     155      SOPE     H3S      HAL2     0.900000E-01   1.00800           0
     17702 MEMB     155      SOPE     C24      CTL2    -0.180000       12.0110           0
     17703 MEMB     155      SOPE     H4R      HAL2     0.900000E-01   1.00800           0
     17704 MEMB     155      SOPE     H4S      HAL2     0.900000E-01   1.00800           0
     17705 MEMB     155      SOPE     C25      CTL2    -0.180000       12.0110           0
     17706 MEMB     155      SOPE     H5R      HAL2     0.900000E-01   1.00800           0
     17707 MEMB     155      SOPE     H5S      HAL2     0.900000E-01   1.00800           0
     17708 MEMB     155      SOPE     C26      CTL2    -0.180000       12.0110           0
     17709 MEMB     155      SOPE     H6R      HAL2     0.900000E-01   1.00800           0
     17710 MEMB     155      SOPE     H6S      HAL2     0.900000E-01   1.00800           0
     17711 MEMB     155      SOPE     C27      CTL2    -0.180000       12.0110           0
     17712 MEMB     155      SOPE     H7R      HAL2     0.900000E-01   1.00800           0
     17713 MEMB     155      SOPE     H7S      HAL2     0.900000E-01   1.00800           0
     17714 MEMB     155      SOPE     C28      CTL2    -0.180000       12.0110           0
     17715 MEMB     155      SOPE     H8R      HAL2     0.900000E-01   1.00800           0
     17716 MEMB     155      SOPE     H8S      HAL2     0.900000E-01   1.00800           0
     17717 MEMB     155      SOPE     C29      CEL1    -0.150000       12.0110           0
     17718 MEMB     155      SOPE     H91      HEL1     0.150000       1.00800           0
     17719 MEMB     155      SOPE     C210     CEL1    -0.150000       12.0110           0
     17720 MEMB     155      SOPE     H101     HEL1     0.150000       1.00800           0
     17721 MEMB     155      SOPE     C211     CTL2    -0.180000       12.0110           0
     17722 MEMB     155      SOPE     H11R     HAL2     0.900000E-01   1.00800           0
     17723 MEMB     155      SOPE     H11S     HAL2     0.900000E-01   1.00800           0
     17724 MEMB     155      SOPE     C212     CTL2    -0.180000       12.0110           0
     17725 MEMB     155      SOPE     H12R     HAL2     0.900000E-01   1.00800           0
     17726 MEMB     155      SOPE     H12S     HAL2     0.900000E-01   1.00800           0
     17727 MEMB     155      SOPE     C213     CTL2    -0.180000       12.0110           0
     17728 MEMB     155      SOPE     H13R     HAL2     0.900000E-01   1.00800           0
     17729 MEMB     155      SOPE     H13S     HAL2     0.900000E-01   1.00800           0
     17730 MEMB     155      SOPE     C214     CTL2    -0.180000       12.0110           0
     17731 MEMB     155      SOPE     H14R     HAL2     0.900000E-01   1.00800           0
     17732 MEMB     155      SOPE     H14S     HAL2     0.900000E-01   1.00800           0
     17733 MEMB     155      SOPE     C215     CTL2    -0.180000       12.0110           0
     17734 MEMB     155      SOPE     H15R     HAL2     0.900000E-01   1.00800           0
     17735 MEMB     155      SOPE     H15S     HAL2     0.900000E-01   1.00800           0
     17736 MEMB     155      SOPE     C216     CTL2    -0.180000       12.0110           0
     17737 MEMB     155      SOPE     H16R     HAL2     0.900000E-01   1.00800           0
     17738 MEMB     155      SOPE     H16S     HAL2     0.900000E-01   1.00800           0
     17739 MEMB     155      SOPE     C217     CTL2    -0.180000       12.0110           0
     17740 MEMB     155      SOPE     H17R     HAL2     0.900000E-01   1.00800           0
     17741 MEMB     155      SOPE     H17S     HAL2     0.900000E-01   1.00800           0
     17742 MEMB     155      SOPE     C218     CTL3    -0.270000       12.0110           0
     17743 MEMB     155      SOPE     H18R     HAL3     0.900000E-01   1.00800           0
     17744 MEMB     155      SOPE     H18S     HAL3     0.900000E-01   1.00800           0
     17745 MEMB     155      SOPE     H18T     HAL3     0.900000E-01   1.00800           0
     17746 MEMB     155      SOPE     C33      CTL2    -0.180000       12.0110           0
     17747 MEMB     155      SOPE     H3X      HAL2     0.900000E-01   1.00800           0
     17748 MEMB     155      SOPE     H3Y      HAL2     0.900000E-01   1.00800           0
     17749 MEMB     155      SOPE     C34      CTL2    -0.180000       12.0110           0
     17750 MEMB     155      SOPE     H4X      HAL2     0.900000E-01   1.00800           0
     17751 MEMB     155      SOPE     H4Y      HAL2     0.900000E-01   1.00800           0
     17752 MEMB     155      SOPE     C35      CTL2    -0.180000       12.0110           0
     17753 MEMB     155      SOPE     H5X      HAL2     0.900000E-01   1.00800           0
     17754 MEMB     155      SOPE     H5Y      HAL2     0.900000E-01   1.00800           0
     17755 MEMB     155      SOPE     C36      CTL2    -0.180000       12.0110           0
     17756 MEMB     155      SOPE     H6X      HAL2     0.900000E-01   1.00800           0
     17757 MEMB     155      SOPE     H6Y      HAL2     0.900000E-01   1.00800           0
     17758 MEMB     155      SOPE     C37      CTL2    -0.180000       12.0110           0
     17759 MEMB     155      SOPE     H7X      HAL2     0.900000E-01   1.00800           0
     17760 MEMB     155      SOPE     H7Y      HAL2     0.900000E-01   1.00800           0
     17761 MEMB     155      SOPE     C38      CTL2    -0.180000       12.0110           0
     17762 MEMB     155      SOPE     H8X      HAL2     0.900000E-01   1.00800           0
     17763 MEMB     155      SOPE     H8Y      HAL2     0.900000E-01   1.00800           0
     17764 MEMB     155      SOPE     C39      CTL2    -0.180000       12.0110           0
     17765 MEMB     155      SOPE     H9X      HAL2     0.900000E-01   1.00800           0
     17766 MEMB     155      SOPE     H9Y      HAL2     0.900000E-01   1.00800           0
     17767 MEMB     155      SOPE     C310     CTL2    -0.180000       12.0110           0
     17768 MEMB     155      SOPE     H10X     HAL2     0.900000E-01   1.00800           0
     17769 MEMB     155      SOPE     H10Y     HAL2     0.900000E-01   1.00800           0
     17770 MEMB     155      SOPE     C311     CTL2    -0.180000       12.0110           0
     17771 MEMB     155      SOPE     H11X     HAL2     0.900000E-01   1.00800           0
     17772 MEMB     155      SOPE     H11Y     HAL2     0.900000E-01   1.00800           0
     17773 MEMB     155      SOPE     C312     CTL2    -0.180000       12.0110           0
     17774 MEMB     155      SOPE     H12X     HAL2     0.900000E-01   1.00800           0
     17775 MEMB     155      SOPE     H12Y     HAL2     0.900000E-01   1.00800           0
     17776 MEMB     155      SOPE     C313     CTL2    -0.180000       12.0110           0
     17777 MEMB     155      SOPE     H13X     HAL2     0.900000E-01   1.00800           0
     17778 MEMB     155      SOPE     H13Y     HAL2     0.900000E-01   1.00800           0
     17779 MEMB     155      SOPE     C314     CTL2    -0.180000       12.0110           0
     17780 MEMB     155      SOPE     H14X     HAL2     0.900000E-01   1.00800           0
     17781 MEMB     155      SOPE     H14Y     HAL2     0.900000E-01   1.00800           0
     17782 MEMB     155      SOPE     C315     CTL2    -0.180000       12.0110           0
     17783 MEMB     155      SOPE     H15X     HAL2     0.900000E-01   1.00800           0
     17784 MEMB     155      SOPE     H15Y     HAL2     0.900000E-01   1.00800           0
     17785 MEMB     155      SOPE     C316     CTL2    -0.180000       12.0110           0
     17786 MEMB     155      SOPE     H16X     HAL2     0.900000E-01   1.00800           0
     17787 MEMB     155      SOPE     H16Y     HAL2     0.900000E-01   1.00800           0
     17788 MEMB     155      SOPE     C317     CTL2    -0.180000       12.0110           0
     17789 MEMB     155      SOPE     H17X     HAL2     0.900000E-01   1.00800           0
     17790 MEMB     155      SOPE     H17Y     HAL2     0.900000E-01   1.00800           0
     17791 MEMB     155      SOPE     C318     CTL3    -0.270000       12.0110           0
     17792 MEMB     155      SOPE     H18X     HAL3     0.900000E-01   1.00800           0
     17793 MEMB     155      SOPE     H18Y     HAL3     0.900000E-01   1.00800           0
     17794 MEMB     155      SOPE     H18Z     HAL3     0.900000E-01   1.00800           0
     17795 MEMB     156      SAPC     N        NTL     -0.600000       14.0070           0
     17796 MEMB     156      SAPC     C12      CTL2    -0.100000       12.0110           0
     17797 MEMB     156      SAPC     H12A     HL       0.250000       1.00800           0
     17798 MEMB     156      SAPC     H12B     HL       0.250000       1.00800           0
     17799 MEMB     156      SAPC     C13      CTL5    -0.350000       12.0110           0
     17800 MEMB     156      SAPC     H13A     HL       0.250000       1.00800           0
     17801 MEMB     156      SAPC     H13B     HL       0.250000       1.00800           0
     17802 MEMB     156      SAPC     H13C     HL       0.250000       1.00800           0
     17803 MEMB     156      SAPC     C14      CTL5    -0.350000       12.0110           0
     17804 MEMB     156      SAPC     H14A     HL       0.250000       1.00800           0
     17805 MEMB     156      SAPC     H14B     HL       0.250000       1.00800           0
     17806 MEMB     156      SAPC     H14C     HL       0.250000       1.00800           0
     17807 MEMB     156      SAPC     C15      CTL5    -0.350000       12.0110           0
     17808 MEMB     156      SAPC     H15A     HL       0.250000       1.00800           0
     17809 MEMB     156      SAPC     H15B     HL       0.250000       1.00800           0
     17810 MEMB     156      SAPC     H15C     HL       0.250000       1.00800           0
     17811 MEMB     156      SAPC     C11      CTL2    -0.800000E-01   12.0110           0
     17812 MEMB     156      SAPC     H11A     HAL2     0.900000E-01   1.00800           0
     17813 MEMB     156      SAPC     H11B     HAL2     0.900000E-01   1.00800           0
     17814 MEMB     156      SAPC     P        PL        1.50000       30.9740           0
     17815 MEMB     156      SAPC     O13      O2L     -0.780000       15.9994           0
     17816 MEMB     156      SAPC     O14      O2L     -0.780000       15.9994           0
     17817 MEMB     156      SAPC     O12      OSLP    -0.570000       15.9994           0
     17818 MEMB     156      SAPC     O11      OSLP    -0.570000       15.9994           0
     17819 MEMB     156      SAPC     C1       CTL2    -0.800000E-01   12.0110           0
     17820 MEMB     156      SAPC     HA       HAL2     0.900000E-01   1.00800           0
     17821 MEMB     156      SAPC     HB       HAL2     0.900000E-01   1.00800           0
     17822 MEMB     156      SAPC     C2       CTL1     0.170000       12.0110           0
     17823 MEMB     156      SAPC     HS       HAL1     0.900000E-01   1.00800           0
     17824 MEMB     156      SAPC     O21      OSL     -0.490000       15.9994           0
     17825 MEMB     156      SAPC     C21      CL       0.900000       12.0110           0
     17826 MEMB     156      SAPC     O22      OBL     -0.630000       15.9994           0
     17827 MEMB     156      SAPC     C22      CTL2    -0.220000       12.0110           0
     17828 MEMB     156      SAPC     H2R      HAL2     0.900000E-01   1.00800           0
     17829 MEMB     156      SAPC     H2S      HAL2     0.900000E-01   1.00800           0
     17830 MEMB     156      SAPC     C3       CTL2     0.800000E-01   12.0110           0
     17831 MEMB     156      SAPC     HX       HAL2     0.900000E-01   1.00800           0
     17832 MEMB     156      SAPC     HY       HAL2     0.900000E-01   1.00800           0
     17833 MEMB     156      SAPC     O31      OSL     -0.490000       15.9994           0
     17834 MEMB     156      SAPC     C31      CL       0.900000       12.0110           0
     17835 MEMB     156      SAPC     O32      OBL     -0.630000       15.9994           0
     17836 MEMB     156      SAPC     C32      CTL2    -0.220000       12.0110           0
     17837 MEMB     156      SAPC     H2X      HAL2     0.900000E-01   1.00800           0
     17838 MEMB     156      SAPC     H2Y      HAL2     0.900000E-01   1.00800           0
     17839 MEMB     156      SAPC     C23      CTL2    -0.180000       12.0110           0
     17840 MEMB     156      SAPC     H3R      HAL2     0.900000E-01   1.00800           0
     17841 MEMB     156      SAPC     H3S      HAL2     0.900000E-01   1.00800           0
     17842 MEMB     156      SAPC     C24      CTL2    -0.180000       12.0110           0
     17843 MEMB     156      SAPC     H4R      HAL2     0.900000E-01   1.00800           0
     17844 MEMB     156      SAPC     H4S      HAL2     0.900000E-01   1.00800           0
     17845 MEMB     156      SAPC     C25      CEL1    -0.150000       12.0110           0
     17846 MEMB     156      SAPC     H5R      HEL1     0.150000       1.00800           0
     17847 MEMB     156      SAPC     C26      CEL1    -0.150000       12.0110           0
     17848 MEMB     156      SAPC     H6R      HEL1     0.150000       1.00800           0
     17849 MEMB     156      SAPC     C27      CTL2    -0.180000       12.0110           0
     17850 MEMB     156      SAPC     H7R      HAL2     0.900000E-01   1.00800           0
     17851 MEMB     156      SAPC     H7S      HAL2     0.900000E-01   1.00800           0
     17852 MEMB     156      SAPC     C28      CEL1    -0.150000       12.0110           0
     17853 MEMB     156      SAPC     H8R      HEL1     0.150000       1.00800           0
     17854 MEMB     156      SAPC     C29      CEL1    -0.150000       12.0110           0
     17855 MEMB     156      SAPC     H9R      HEL1     0.150000       1.00800           0
     17856 MEMB     156      SAPC     C210     CTL2    -0.180000       12.0110           0
     17857 MEMB     156      SAPC     H10R     HAL2     0.900000E-01   1.00800           0
     17858 MEMB     156      SAPC     H10S     HAL2     0.900000E-01   1.00800           0
     17859 MEMB     156      SAPC     C211     CEL1    -0.150000       12.0110           0
     17860 MEMB     156      SAPC     H11R     HEL1     0.150000       1.00800           0
     17861 MEMB     156      SAPC     C212     CEL1    -0.150000       12.0110           0
     17862 MEMB     156      SAPC     H12R     HEL1     0.150000       1.00800           0
     17863 MEMB     156      SAPC     C213     CTL2    -0.180000       12.0110           0
     17864 MEMB     156      SAPC     H13R     HAL2     0.900000E-01   1.00800           0
     17865 MEMB     156      SAPC     H13S     HAL2     0.900000E-01   1.00800           0
     17866 MEMB     156      SAPC     C214     CEL1    -0.150000       12.0110           0
     17867 MEMB     156      SAPC     H14R     HEL1     0.150000       1.00800           0
     17868 MEMB     156      SAPC     C215     CEL1    -0.150000       12.0110           0
     17869 MEMB     156      SAPC     H15R     HEL1     0.150000       1.00800           0
     17870 MEMB     156      SAPC     C216     CTL2    -0.180000       12.0110           0
     17871 MEMB     156      SAPC     H16R     HAL2     0.900000E-01   1.00800           0
     17872 MEMB     156      SAPC     H16S     HAL2     0.900000E-01   1.00800           0
     17873 MEMB     156      SAPC     C217     CTL2    -0.180000       12.0110           0
     17874 MEMB     156      SAPC     H17R     HAL2     0.900000E-01   1.00800           0
     17875 MEMB     156      SAPC     H17S     HAL2     0.900000E-01   1.00800           0
     17876 MEMB     156      SAPC     C218     CTL2    -0.270000       12.0110           0
     17877 MEMB     156      SAPC     H18R     HAL2     0.900000E-01   1.00800           0
     17878 MEMB     156      SAPC     H18S     HAL2     0.900000E-01   1.00800           0
     17879 MEMB     156      SAPC     C219     CTL2    -0.180000       12.0110           0
     17880 MEMB     156      SAPC     H19R     HAL2     0.900000E-01   1.00800           0
     17881 MEMB     156      SAPC     H19S     HAL2     0.900000E-01   1.00800           0
     17882 MEMB     156      SAPC     C220     CTL3    -0.180000       12.0110           0
     17883 MEMB     156      SAPC     H20R     HAL3     0.900000E-01   1.00800           0
     17884 MEMB     156      SAPC     H20S     HAL3     0.900000E-01   1.00800           0
     17885 MEMB     156      SAPC     H20T     HAL3     0.900000E-01   1.00800           0
     17886 MEMB     156      SAPC     C33      CTL2    -0.180000       12.0110           0
     17887 MEMB     156      SAPC     H3X      HAL2     0.900000E-01   1.00800           0
     17888 MEMB     156      SAPC     H3Y      HAL2     0.900000E-01   1.00800           0
     17889 MEMB     156      SAPC     C34      CTL2    -0.180000       12.0110           0
     17890 MEMB     156      SAPC     H4X      HAL2     0.900000E-01   1.00800           0
     17891 MEMB     156      SAPC     H4Y      HAL2     0.900000E-01   1.00800           0
     17892 MEMB     156      SAPC     C35      CTL2    -0.180000       12.0110           0
     17893 MEMB     156      SAPC     H5X      HAL2     0.900000E-01   1.00800           0
     17894 MEMB     156      SAPC     H5Y      HAL2     0.900000E-01   1.00800           0
     17895 MEMB     156      SAPC     C36      CTL2    -0.180000       12.0110           0
     17896 MEMB     156      SAPC     H6X      HAL2     0.900000E-01   1.00800           0
     17897 MEMB     156      SAPC     H6Y      HAL2     0.900000E-01   1.00800           0
     17898 MEMB     156      SAPC     C37      CTL2    -0.180000       12.0110           0
     17899 MEMB     156      SAPC     H7X      HAL2     0.900000E-01   1.00800           0
     17900 MEMB     156      SAPC     H7Y      HAL2     0.900000E-01   1.00800           0
     17901 MEMB     156      SAPC     C38      CTL2    -0.180000       12.0110           0
     17902 MEMB     156      SAPC     H8X      HAL2     0.900000E-01   1.00800           0
     17903 MEMB     156      SAPC     H8Y      HAL2     0.900000E-01   1.00800           0
     17904 MEMB     156      SAPC     C39      CTL2    -0.180000       12.0110           0
     17905 MEMB     156      SAPC     H9X      HAL2     0.900000E-01   1.00800           0
     17906 MEMB     156      SAPC     H9Y      HAL2     0.900000E-01   1.00800           0
     17907 MEMB     156      SAPC     C310     CTL2    -0.180000       12.0110           0
     17908 MEMB     156      SAPC     H10X     HAL2     0.900000E-01   1.00800           0
     17909 MEMB     156      SAPC     H10Y     HAL2     0.900000E-01   1.00800           0
     17910 MEMB     156      SAPC     C311     CTL2    -0.180000       12.0110           0
     17911 MEMB     156      SAPC     H11X     HAL2     0.900000E-01   1.00800           0
     17912 MEMB     156      SAPC     H11Y     HAL2     0.900000E-01   1.00800           0
     17913 MEMB     156      SAPC     C312     CTL2    -0.180000       12.0110           0
     17914 MEMB     156      SAPC     H12X     HAL2     0.900000E-01   1.00800           0
     17915 MEMB     156      SAPC     H12Y     HAL2     0.900000E-01   1.00800           0
     17916 MEMB     156      SAPC     C313     CTL2    -0.180000       12.0110           0
     17917 MEMB     156      SAPC     H13X     HAL2     0.900000E-01   1.00800           0
     17918 MEMB     156      SAPC     H13Y     HAL2     0.900000E-01   1.00800           0
     17919 MEMB     156      SAPC     C314     CTL2    -0.180000       12.0110           0
     17920 MEMB     156      SAPC     H14X     HAL2     0.900000E-01   1.00800           0
     17921 MEMB     156      SAPC     H14Y     HAL2     0.900000E-01   1.00800           0
     17922 MEMB     156      SAPC     C315     CTL2    -0.180000       12.0110           0
     17923 MEMB     156      SAPC     H15X     HAL2     0.900000E-01   1.00800           0
     17924 MEMB     156      SAPC     H15Y     HAL2     0.900000E-01   1.00800           0
     17925 MEMB     156      SAPC     C316     CTL2    -0.180000       12.0110           0
     17926 MEMB     156      SAPC     H16X     HAL2     0.900000E-01   1.00800           0
     17927 MEMB     156      SAPC     H16Y     HAL2     0.900000E-01   1.00800           0
     17928 MEMB     156      SAPC     C317     CTL2    -0.180000       12.0110           0
     17929 MEMB     156      SAPC     H17X     HAL2     0.900000E-01   1.00800           0
     17930 MEMB     156      SAPC     H17Y     HAL2     0.900000E-01   1.00800           0
     17931 MEMB     156      SAPC     C318     CTL3    -0.270000       12.0110           0
     17932 MEMB     156      SAPC     H18X     HAL3     0.900000E-01   1.00800           0
     17933 MEMB     156      SAPC     H18Y     HAL3     0.900000E-01   1.00800           0
     17934 MEMB     156      SAPC     H18Z     HAL3     0.900000E-01   1.00800           0
     17935 MEMB     157      SAPC     N        NTL     -0.600000       14.0070           0
     17936 MEMB     157      SAPC     C12      CTL2    -0.100000       12.0110           0
     17937 MEMB     157      SAPC     H12A     HL       0.250000       1.00800           0
     17938 MEMB     157      SAPC     H12B     HL       0.250000       1.00800           0
     17939 MEMB     157      SAPC     C13      CTL5    -0.350000       12.0110           0
     17940 MEMB     157      SAPC     H13A     HL       0.250000       1.00800           0
     17941 MEMB     157      SAPC     H13B     HL       0.250000       1.00800           0
     17942 MEMB     157      SAPC     H13C     HL       0.250000       1.00800           0
     17943 MEMB     157      SAPC     C14      CTL5    -0.350000       12.0110           0
     17944 MEMB     157      SAPC     H14A     HL       0.250000       1.00800           0
     17945 MEMB     157      SAPC     H14B     HL       0.250000       1.00800           0
     17946 MEMB     157      SAPC     H14C     HL       0.250000       1.00800           0
     17947 MEMB     157      SAPC     C15      CTL5    -0.350000       12.0110           0
     17948 MEMB     157      SAPC     H15A     HL       0.250000       1.00800           0
     17949 MEMB     157      SAPC     H15B     HL       0.250000       1.00800           0
     17950 MEMB     157      SAPC     H15C     HL       0.250000       1.00800           0
     17951 MEMB     157      SAPC     C11      CTL2    -0.800000E-01   12.0110           0
     17952 MEMB     157      SAPC     H11A     HAL2     0.900000E-01   1.00800           0
     17953 MEMB     157      SAPC     H11B     HAL2     0.900000E-01   1.00800           0
     17954 MEMB     157      SAPC     P        PL        1.50000       30.9740           0
     17955 MEMB     157      SAPC     O13      O2L     -0.780000       15.9994           0
     17956 MEMB     157      SAPC     O14      O2L     -0.780000       15.9994           0
     17957 MEMB     157      SAPC     O12      OSLP    -0.570000       15.9994           0
     17958 MEMB     157      SAPC     O11      OSLP    -0.570000       15.9994           0
     17959 MEMB     157      SAPC     C1       CTL2    -0.800000E-01   12.0110           0
     17960 MEMB     157      SAPC     HA       HAL2     0.900000E-01   1.00800           0
     17961 MEMB     157      SAPC     HB       HAL2     0.900000E-01   1.00800           0
     17962 MEMB     157      SAPC     C2       CTL1     0.170000       12.0110           0
     17963 MEMB     157      SAPC     HS       HAL1     0.900000E-01   1.00800           0
     17964 MEMB     157      SAPC     O21      OSL     -0.490000       15.9994           0
     17965 MEMB     157      SAPC     C21      CL       0.900000       12.0110           0
     17966 MEMB     157      SAPC     O22      OBL     -0.630000       15.9994           0
     17967 MEMB     157      SAPC     C22      CTL2    -0.220000       12.0110           0
     17968 MEMB     157      SAPC     H2R      HAL2     0.900000E-01   1.00800           0
     17969 MEMB     157      SAPC     H2S      HAL2     0.900000E-01   1.00800           0
     17970 MEMB     157      SAPC     C3       CTL2     0.800000E-01   12.0110           0
     17971 MEMB     157      SAPC     HX       HAL2     0.900000E-01   1.00800           0
     17972 MEMB     157      SAPC     HY       HAL2     0.900000E-01   1.00800           0
     17973 MEMB     157      SAPC     O31      OSL     -0.490000       15.9994           0
     17974 MEMB     157      SAPC     C31      CL       0.900000       12.0110           0
     17975 MEMB     157      SAPC     O32      OBL     -0.630000       15.9994           0
     17976 MEMB     157      SAPC     C32      CTL2    -0.220000       12.0110           0
     17977 MEMB     157      SAPC     H2X      HAL2     0.900000E-01   1.00800           0
     17978 MEMB     157      SAPC     H2Y      HAL2     0.900000E-01   1.00800           0
     17979 MEMB     157      SAPC     C23      CTL2    -0.180000       12.0110           0
     17980 MEMB     157      SAPC     H3R      HAL2     0.900000E-01   1.00800           0
     17981 MEMB     157      SAPC     H3S      HAL2     0.900000E-01   1.00800           0
     17982 MEMB     157      SAPC     C24      CTL2    -0.180000       12.0110           0
     17983 MEMB     157      SAPC     H4R      HAL2     0.900000E-01   1.00800           0
     17984 MEMB     157      SAPC     H4S      HAL2     0.900000E-01   1.00800           0
     17985 MEMB     157      SAPC     C25      CEL1    -0.150000       12.0110           0
     17986 MEMB     157      SAPC     H5R      HEL1     0.150000       1.00800           0
     17987 MEMB     157      SAPC     C26      CEL1    -0.150000       12.0110           0
     17988 MEMB     157      SAPC     H6R      HEL1     0.150000       1.00800           0
     17989 MEMB     157      SAPC     C27      CTL2    -0.180000       12.0110           0
     17990 MEMB     157      SAPC     H7R      HAL2     0.900000E-01   1.00800           0
     17991 MEMB     157      SAPC     H7S      HAL2     0.900000E-01   1.00800           0
     17992 MEMB     157      SAPC     C28      CEL1    -0.150000       12.0110           0
     17993 MEMB     157      SAPC     H8R      HEL1     0.150000       1.00800           0
     17994 MEMB     157      SAPC     C29      CEL1    -0.150000       12.0110           0
     17995 MEMB     157      SAPC     H9R      HEL1     0.150000       1.00800           0
     17996 MEMB     157      SAPC     C210     CTL2    -0.180000       12.0110           0
     17997 MEMB     157      SAPC     H10R     HAL2     0.900000E-01   1.00800           0
     17998 MEMB     157      SAPC     H10S     HAL2     0.900000E-01   1.00800           0
     17999 MEMB     157      SAPC     C211     CEL1    -0.150000       12.0110           0
     18000 MEMB     157      SAPC     H11R     HEL1     0.150000       1.00800           0
     18001 MEMB     157      SAPC     C212     CEL1    -0.150000       12.0110           0
     18002 MEMB     157      SAPC     H12R     HEL1     0.150000       1.00800           0
     18003 MEMB     157      SAPC     C213     CTL2    -0.180000       12.0110           0
     18004 MEMB     157      SAPC     H13R     HAL2     0.900000E-01   1.00800           0
     18005 MEMB     157      SAPC     H13S     HAL2     0.900000E-01   1.00800           0
     18006 MEMB     157      SAPC     C214     CEL1    -0.150000       12.0110           0
     18007 MEMB     157      SAPC     H14R     HEL1     0.150000       1.00800           0
     18008 MEMB     157      SAPC     C215     CEL1    -0.150000       12.0110           0
     18009 MEMB     157      SAPC     H15R     HEL1     0.150000       1.00800           0
     18010 MEMB     157      SAPC     C216     CTL2    -0.180000       12.0110           0
     18011 MEMB     157      SAPC     H16R     HAL2     0.900000E-01   1.00800           0
     18012 MEMB     157      SAPC     H16S     HAL2     0.900000E-01   1.00800           0
     18013 MEMB     157      SAPC     C217     CTL2    -0.180000       12.0110           0
     18014 MEMB     157      SAPC     H17R     HAL2     0.900000E-01   1.00800           0
     18015 MEMB     157      SAPC     H17S     HAL2     0.900000E-01   1.00800           0
     18016 MEMB     157      SAPC     C218     CTL2    -0.270000       12.0110           0
     18017 MEMB     157      SAPC     H18R     HAL2     0.900000E-01   1.00800           0
     18018 MEMB     157      SAPC     H18S     HAL2     0.900000E-01   1.00800           0
     18019 MEMB     157      SAPC     C219     CTL2    -0.180000       12.0110           0
     18020 MEMB     157      SAPC     H19R     HAL2     0.900000E-01   1.00800           0
     18021 MEMB     157      SAPC     H19S     HAL2     0.900000E-01   1.00800           0
     18022 MEMB     157      SAPC     C220     CTL3    -0.180000       12.0110           0
     18023 MEMB     157      SAPC     H20R     HAL3     0.900000E-01   1.00800           0
     18024 MEMB     157      SAPC     H20S     HAL3     0.900000E-01   1.00800           0
     18025 MEMB     157      SAPC     H20T     HAL3     0.900000E-01   1.00800           0
     18026 MEMB     157      SAPC     C33      CTL2    -0.180000       12.0110           0
     18027 MEMB     157      SAPC     H3X      HAL2     0.900000E-01   1.00800           0
     18028 MEMB     157      SAPC     H3Y      HAL2     0.900000E-01   1.00800           0
     18029 MEMB     157      SAPC     C34      CTL2    -0.180000       12.0110           0
     18030 MEMB     157      SAPC     H4X      HAL2     0.900000E-01   1.00800           0
     18031 MEMB     157      SAPC     H4Y      HAL2     0.900000E-01   1.00800           0
     18032 MEMB     157      SAPC     C35      CTL2    -0.180000       12.0110           0
     18033 MEMB     157      SAPC     H5X      HAL2     0.900000E-01   1.00800           0
     18034 MEMB     157      SAPC     H5Y      HAL2     0.900000E-01   1.00800           0
     18035 MEMB     157      SAPC     C36      CTL2    -0.180000       12.0110           0
     18036 MEMB     157      SAPC     H6X      HAL2     0.900000E-01   1.00800           0
     18037 MEMB     157      SAPC     H6Y      HAL2     0.900000E-01   1.00800           0
     18038 MEMB     157      SAPC     C37      CTL2    -0.180000       12.0110           0
     18039 MEMB     157      SAPC     H7X      HAL2     0.900000E-01   1.00800           0
     18040 MEMB     157      SAPC     H7Y      HAL2     0.900000E-01   1.00800           0
     18041 MEMB     157      SAPC     C38      CTL2    -0.180000       12.0110           0
     18042 MEMB     157      SAPC     H8X      HAL2     0.900000E-01   1.00800           0
     18043 MEMB     157      SAPC     H8Y      HAL2     0.900000E-01   1.00800           0
     18044 MEMB     157      SAPC     C39      CTL2    -0.180000       12.0110           0
     18045 MEMB     157      SAPC     H9X      HAL2     0.900000E-01   1.00800           0
     18046 MEMB     157      SAPC     H9Y      HAL2     0.900000E-01   1.00800           0
     18047 MEMB     157      SAPC     C310     CTL2    -0.180000       12.0110           0
     18048 MEMB     157      SAPC     H10X     HAL2     0.900000E-01   1.00800           0
     18049 MEMB     157      SAPC     H10Y     HAL2     0.900000E-01   1.00800           0
     18050 MEMB     157      SAPC     C311     CTL2    -0.180000       12.0110           0
     18051 MEMB     157      SAPC     H11X     HAL2     0.900000E-01   1.00800           0
     18052 MEMB     157      SAPC     H11Y     HAL2     0.900000E-01   1.00800           0
     18053 MEMB     157      SAPC     C312     CTL2    -0.180000       12.0110           0
     18054 MEMB     157      SAPC     H12X     HAL2     0.900000E-01   1.00800           0
     18055 MEMB     157      SAPC     H12Y     HAL2     0.900000E-01   1.00800           0
     18056 MEMB     157      SAPC     C313     CTL2    -0.180000       12.0110           0
     18057 MEMB     157      SAPC     H13X     HAL2     0.900000E-01   1.00800           0
     18058 MEMB     157      SAPC     H13Y     HAL2     0.900000E-01   1.00800           0
     18059 MEMB     157      SAPC     C314     CTL2    -0.180000       12.0110           0
     18060 MEMB     157      SAPC     H14X     HAL2     0.900000E-01   1.00800           0
     18061 MEMB     157      SAPC     H14Y     HAL2     0.900000E-01   1.00800           0
     18062 MEMB     157      SAPC     C315     CTL2    -0.180000       12.0110           0
     18063 MEMB     157      SAPC     H15X     HAL2     0.900000E-01   1.00800           0
     18064 MEMB     157      SAPC     H15Y     HAL2     0.900000E-01   1.00800           0
     18065 MEMB     157      SAPC     C316     CTL2    -0.180000       12.0110           0
     18066 MEMB     157      SAPC     H16X     HAL2     0.900000E-01   1.00800           0
     18067 MEMB     157      SAPC     H16Y     HAL2     0.900000E-01   1.00800           0
     18068 MEMB     157      SAPC     C317     CTL2    -0.180000       12.0110           0
     18069 MEMB     157      SAPC     H17X     HAL2     0.900000E-01   1.00800           0
     18070 MEMB     157      SAPC     H17Y     HAL2     0.900000E-01   1.00800           0
     18071 MEMB     157      SAPC     C318     CTL3    -0.270000       12.0110           0
     18072 MEMB     157      SAPC     H18X     HAL3     0.900000E-01   1.00800           0
     18073 MEMB     157      SAPC     H18Y     HAL3     0.900000E-01   1.00800           0
     18074 MEMB     157      SAPC     H18Z     HAL3     0.900000E-01   1.00800           0
     18075 MEMB     158      OSM      N        NTL     -0.600000       14.0070           0
     18076 MEMB     158      OSM      C15      CTL5    -0.350000       12.0110           0
     18077 MEMB     158      OSM      H15A     HL       0.250000       1.00800           0
     18078 MEMB     158      OSM      H15B     HL       0.250000       1.00800           0
     18079 MEMB     158      OSM      H15C     HL       0.250000       1.00800           0
     18080 MEMB     158      OSM      C14      CTL5    -0.350000       12.0110           0
     18081 MEMB     158      OSM      H14A     HL       0.250000       1.00800           0
     18082 MEMB     158      OSM      H14B     HL       0.250000       1.00800           0
     18083 MEMB     158      OSM      H14C     HL       0.250000       1.00800           0
     18084 MEMB     158      OSM      C13      CTL5    -0.350000       12.0110           0
     18085 MEMB     158      OSM      H13A     HL       0.250000       1.00800           0
     18086 MEMB     158      OSM      H13B     HL       0.250000       1.00800           0
     18087 MEMB     158      OSM      H13C     HL       0.250000       1.00800           0
     18088 MEMB     158      OSM      C12      CTL2    -0.100000       12.0110           0
     18089 MEMB     158      OSM      H12A     HL       0.250000       1.00800           0
     18090 MEMB     158      OSM      H12B     HL       0.250000       1.00800           0
     18091 MEMB     158      OSM      C11      CTL2    -0.800000E-01   12.0110           0
     18092 MEMB     158      OSM      H11A     HAL2     0.900000E-01   1.00800           0
     18093 MEMB     158      OSM      H11B     HAL2     0.900000E-01   1.00800           0
     18094 MEMB     158      OSM      P        PL        1.50000       30.9740           0
     18095 MEMB     158      OSM      O13      O2L     -0.780000       15.9994           0
     18096 MEMB     158      OSM      O14      O2L     -0.780000       15.9994           0
     18097 MEMB     158      OSM      O11      OSLP    -0.570000       15.9994           0
     18098 MEMB     158      OSM      O12      OSLP    -0.570000       15.9994           0
     18099 MEMB     158      OSM      C1S      CTL2    -0.800000E-01   12.0110           0
     18100 MEMB     158      OSM      H1S      HAL2     0.900000E-01   1.00800           0
     18101 MEMB     158      OSM      H1T      HAL2     0.900000E-01   1.00800           0
     18102 MEMB     158      OSM      NF       NHL     -0.700000       14.0070           0
     18103 MEMB     158      OSM      HNF      H        0.350000       1.00800           0
     18104 MEMB     158      OSM      C2S      CTL1     0.300000       12.0110           0
     18105 MEMB     158      OSM      H2S      HAL1     0.500000E-01   1.00800           0
     18106 MEMB     158      OSM      C3S      CTO1     0.500000       12.0110           0
     18107 MEMB     158      OSM      H3S      HAL1    -0.110000       1.00800           0
     18108 MEMB     158      OSM      O3       OHL     -0.690000       15.9994           0
     18109 MEMB     158      OSM      HO3      HOL      0.300000       1.00800           0
     18110 MEMB     158      OSM      C4S      CEL3    -0.150000       12.0110           0
     18111 MEMB     158      OSM      H4S      HEL1     0.150000       1.00800           0
     18112 MEMB     158      OSM      C5S      CEL3    -0.150000       12.0110           0
     18113 MEMB     158      OSM      H5S      HEL1     0.150000       1.00800           0
     18114 MEMB     158      OSM      C6S      CTL2    -0.180000       12.0110           0
     18115 MEMB     158      OSM      H6S      HAL2     0.900000E-01   1.00800           0
     18116 MEMB     158      OSM      H6T      HAL2     0.900000E-01   1.00800           0
     18117 MEMB     158      OSM      C7S      CTL2    -0.180000       12.0110           0
     18118 MEMB     158      OSM      H7S      HAL2     0.900000E-01   1.00800           0
     18119 MEMB     158      OSM      H7T      HAL2     0.900000E-01   1.00800           0
     18120 MEMB     158      OSM      C8S      CTL2    -0.180000       12.0110           0
     18121 MEMB     158      OSM      H8S      HAL2     0.900000E-01   1.00800           0
     18122 MEMB     158      OSM      H8T      HAL2     0.900000E-01   1.00800           0
     18123 MEMB     158      OSM      C9S      CTL2    -0.180000       12.0110           0
     18124 MEMB     158      OSM      H9S      HAL2     0.900000E-01   1.00800           0
     18125 MEMB     158      OSM      H9T      HAL2     0.900000E-01   1.00800           0
     18126 MEMB     158      OSM      C10S     CTL2    -0.180000       12.0110           0
     18127 MEMB     158      OSM      H10S     HAL2     0.900000E-01   1.00800           0
     18128 MEMB     158      OSM      H10T     HAL2     0.900000E-01   1.00800           0
     18129 MEMB     158      OSM      C11S     CTL2    -0.180000       12.0110           0
     18130 MEMB     158      OSM      H11S     HAL2     0.900000E-01   1.00800           0
     18131 MEMB     158      OSM      H11T     HAL2     0.900000E-01   1.00800           0
     18132 MEMB     158      OSM      C12S     CTL2    -0.180000       12.0110           0
     18133 MEMB     158      OSM      H12S     HAL2     0.900000E-01   1.00800           0
     18134 MEMB     158      OSM      H12T     HAL2     0.900000E-01   1.00800           0
     18135 MEMB     158      OSM      C13S     CTL2    -0.180000       12.0110           0
     18136 MEMB     158      OSM      H13S     HAL2     0.900000E-01   1.00800           0
     18137 MEMB     158      OSM      H13T     HAL2     0.900000E-01   1.00800           0
     18138 MEMB     158      OSM      C14S     CTL2    -0.180000       12.0110           0
     18139 MEMB     158      OSM      H14S     HAL2     0.900000E-01   1.00800           0
     18140 MEMB     158      OSM      H14T     HAL2     0.900000E-01   1.00800           0
     18141 MEMB     158      OSM      C15S     CTL2    -0.180000       12.0110           0
     18142 MEMB     158      OSM      H15S     HAL2     0.900000E-01   1.00800           0
     18143 MEMB     158      OSM      H15T     HAL2     0.900000E-01   1.00800           0
     18144 MEMB     158      OSM      C16S     CTL2    -0.180000       12.0110           0
     18145 MEMB     158      OSM      H16S     HAL2     0.900000E-01   1.00800           0
     18146 MEMB     158      OSM      H16T     HAL2     0.900000E-01   1.00800           0
     18147 MEMB     158      OSM      C17S     CTL2    -0.180000       12.0110           0
     18148 MEMB     158      OSM      H17S     HAL2     0.900000E-01   1.00800           0
     18149 MEMB     158      OSM      H17T     HAL2     0.900000E-01   1.00800           0
     18150 MEMB     158      OSM      C18S     CTL3    -0.270000       12.0110           0
     18151 MEMB     158      OSM      H18S     HAL3     0.900000E-01   1.00800           0
     18152 MEMB     158      OSM      H18T     HAL3     0.900000E-01   1.00800           0
     18153 MEMB     158      OSM      H18U     HAL3     0.900000E-01   1.00800           0
     18154 MEMB     158      OSM      C1F      C        0.550000       12.0110           0
     18155 MEMB     158      OSM      OF       O       -0.600000       15.9994           0
     18156 MEMB     158      OSM      C2F      CTL2    -0.700000E-01   12.0110           0
     18157 MEMB     158      OSM      H2F      HAL2     0.600000E-01   1.00800           0
     18158 MEMB     158      OSM      H2G      HAL2     0.600000E-01   1.00800           0
     18159 MEMB     158      OSM      C3F      CTL2    -0.180000       12.0110           0
     18160 MEMB     158      OSM      H3F      HAL2     0.900000E-01   1.00800           0
     18161 MEMB     158      OSM      H3G      HAL2     0.900000E-01   1.00800           0
     18162 MEMB     158      OSM      C4F      CTL2    -0.180000       12.0110           0
     18163 MEMB     158      OSM      H4F      HAL2     0.900000E-01   1.00800           0
     18164 MEMB     158      OSM      H4G      HAL2     0.900000E-01   1.00800           0
     18165 MEMB     158      OSM      C5F      CTL2    -0.180000       12.0110           0
     18166 MEMB     158      OSM      H5F      HAL2     0.900000E-01   1.00800           0
     18167 MEMB     158      OSM      H5G      HAL2     0.900000E-01   1.00800           0
     18168 MEMB     158      OSM      C6F      CTL2    -0.180000       12.0110           0
     18169 MEMB     158      OSM      H6F      HAL2     0.900000E-01   1.00800           0
     18170 MEMB     158      OSM      H6G      HAL2     0.900000E-01   1.00800           0
     18171 MEMB     158      OSM      C7F      CTL2    -0.180000       12.0110           0
     18172 MEMB     158      OSM      H7F      HAL2     0.900000E-01   1.00800           0
     18173 MEMB     158      OSM      H7G      HAL2     0.900000E-01   1.00800           0
     18174 MEMB     158      OSM      C8F      CTL2    -0.180000       12.0110           0
     18175 MEMB     158      OSM      H8F      HAL2     0.900000E-01   1.00800           0
     18176 MEMB     158      OSM      H8G      HAL2     0.900000E-01   1.00800           0
     18177 MEMB     158      OSM      C9F      CEL1    -0.150000       12.0110           0
     18178 MEMB     158      OSM      H9F      HEL1     0.150000       1.00800           0
     18179 MEMB     158      OSM      C10F     CEL1    -0.150000       12.0110           0
     18180 MEMB     158      OSM      H10F     HEL1     0.150000       1.00800           0
     18181 MEMB     158      OSM      C11F     CTL2    -0.180000       12.0110           0
     18182 MEMB     158      OSM      H11F     HAL2     0.900000E-01   1.00800           0
     18183 MEMB     158      OSM      H11G     HAL2     0.900000E-01   1.00800           0
     18184 MEMB     158      OSM      C12F     CTL2    -0.180000       12.0110           0
     18185 MEMB     158      OSM      H12F     HAL2     0.900000E-01   1.00800           0
     18186 MEMB     158      OSM      H12G     HAL2     0.900000E-01   1.00800           0
     18187 MEMB     158      OSM      C13F     CTL2    -0.180000       12.0110           0
     18188 MEMB     158      OSM      H13F     HAL2     0.900000E-01   1.00800           0
     18189 MEMB     158      OSM      H13G     HAL2     0.900000E-01   1.00800           0
     18190 MEMB     158      OSM      C14F     CTL2    -0.180000       12.0110           0
     18191 MEMB     158      OSM      H14F     HAL2     0.900000E-01   1.00800           0
     18192 MEMB     158      OSM      H14G     HAL2     0.900000E-01   1.00800           0
     18193 MEMB     158      OSM      C15F     CTL2    -0.180000       12.0110           0
     18194 MEMB     158      OSM      H15F     HAL2     0.900000E-01   1.00800           0
     18195 MEMB     158      OSM      H15G     HAL2     0.900000E-01   1.00800           0
     18196 MEMB     158      OSM      C16F     CTL2    -0.180000       12.0110           0
     18197 MEMB     158      OSM      H16F     HAL2     0.900000E-01   1.00800           0
     18198 MEMB     158      OSM      H16G     HAL2     0.900000E-01   1.00800           0
     18199 MEMB     158      OSM      C17F     CTL2    -0.180000       12.0110           0
     18200 MEMB     158      OSM      H17F     HAL2     0.900000E-01   1.00800           0
     18201 MEMB     158      OSM      H17G     HAL2     0.900000E-01   1.00800           0
     18202 MEMB     158      OSM      C18F     CTL3    -0.270000       12.0110           0
     18203 MEMB     158      OSM      H18F     HAL3     0.900000E-01   1.00800           0
     18204 MEMB     158      OSM      H18G     HAL3     0.900000E-01   1.00800           0
     18205 MEMB     158      OSM      H18H     HAL3     0.900000E-01   1.00800           0
     18206 MEMB     159      SAPE     N        NH3L    -0.300000       14.0070           0
     18207 MEMB     159      SAPE     HN1      HCL      0.330000       1.00800           0
     18208 MEMB     159      SAPE     HN2      HCL      0.330000       1.00800           0
     18209 MEMB     159      SAPE     HN3      HCL      0.330000       1.00800           0
     18210 MEMB     159      SAPE     C12      CTL2     0.130000       12.0110           0
     18211 MEMB     159      SAPE     H12A     HAL2     0.900000E-01   1.00800           0
     18212 MEMB     159      SAPE     H12B     HAL2     0.900000E-01   1.00800           0
     18213 MEMB     159      SAPE     C11      CTL2    -0.800000E-01   12.0110           0
     18214 MEMB     159      SAPE     H11A     HAL2     0.900000E-01   1.00800           0
     18215 MEMB     159      SAPE     H11B     HAL2     0.900000E-01   1.00800           0
     18216 MEMB     159      SAPE     P        PL        1.50000       30.9740           0
     18217 MEMB     159      SAPE     O13      O2L     -0.780000       15.9994           0
     18218 MEMB     159      SAPE     O14      O2L     -0.780000       15.9994           0
     18219 MEMB     159      SAPE     O12      OSLP    -0.570000       15.9994           0
     18220 MEMB     159      SAPE     O11      OSLP    -0.570000       15.9994           0
     18221 MEMB     159      SAPE     C1       CTL2    -0.800000E-01   12.0110           0
     18222 MEMB     159      SAPE     HA       HAL2     0.900000E-01   1.00800           0
     18223 MEMB     159      SAPE     HB       HAL2     0.900000E-01   1.00800           0
     18224 MEMB     159      SAPE     C2       CTL1     0.170000       12.0110           0
     18225 MEMB     159      SAPE     HS       HAL1     0.900000E-01   1.00800           0
     18226 MEMB     159      SAPE     O21      OSL     -0.490000       15.9994           0
     18227 MEMB     159      SAPE     C21      CL       0.900000       12.0110           0
     18228 MEMB     159      SAPE     O22      OBL     -0.630000       15.9994           0
     18229 MEMB     159      SAPE     C22      CTL2    -0.220000       12.0110           0
     18230 MEMB     159      SAPE     H2R      HAL2     0.900000E-01   1.00800           0
     18231 MEMB     159      SAPE     H2S      HAL2     0.900000E-01   1.00800           0
     18232 MEMB     159      SAPE     C3       CTL2     0.800000E-01   12.0110           0
     18233 MEMB     159      SAPE     HX       HAL2     0.900000E-01   1.00800           0
     18234 MEMB     159      SAPE     HY       HAL2     0.900000E-01   1.00800           0
     18235 MEMB     159      SAPE     O31      OSL     -0.490000       15.9994           0
     18236 MEMB     159      SAPE     C31      CL       0.900000       12.0110           0
     18237 MEMB     159      SAPE     O32      OBL     -0.630000       15.9994           0
     18238 MEMB     159      SAPE     C32      CTL2    -0.220000       12.0110           0
     18239 MEMB     159      SAPE     H2X      HAL2     0.900000E-01   1.00800           0
     18240 MEMB     159      SAPE     H2Y      HAL2     0.900000E-01   1.00800           0
     18241 MEMB     159      SAPE     C23      CTL2    -0.180000       12.0110           0
     18242 MEMB     159      SAPE     H3R      HAL2     0.900000E-01   1.00800           0
     18243 MEMB     159      SAPE     H3S      HAL2     0.900000E-01   1.00800           0
     18244 MEMB     159      SAPE     C24      CTL2    -0.180000       12.0110           0
     18245 MEMB     159      SAPE     H4R      HAL2     0.900000E-01   1.00800           0
     18246 MEMB     159      SAPE     H4S      HAL2     0.900000E-01   1.00800           0
     18247 MEMB     159      SAPE     C25      CEL1    -0.150000       12.0110           0
     18248 MEMB     159      SAPE     H5R      HEL1     0.150000       1.00800           0
     18249 MEMB     159      SAPE     C26      CEL1    -0.150000       12.0110           0
     18250 MEMB     159      SAPE     H6R      HEL1     0.150000       1.00800           0
     18251 MEMB     159      SAPE     C27      CTL2    -0.180000       12.0110           0
     18252 MEMB     159      SAPE     H7R      HAL2     0.900000E-01   1.00800           0
     18253 MEMB     159      SAPE     H7S      HAL2     0.900000E-01   1.00800           0
     18254 MEMB     159      SAPE     C28      CEL1    -0.150000       12.0110           0
     18255 MEMB     159      SAPE     H8R      HEL1     0.150000       1.00800           0
     18256 MEMB     159      SAPE     C29      CEL1    -0.150000       12.0110           0
     18257 MEMB     159      SAPE     H9R      HEL1     0.150000       1.00800           0
     18258 MEMB     159      SAPE     C210     CTL2    -0.180000       12.0110           0
     18259 MEMB     159      SAPE     H10R     HAL2     0.900000E-01   1.00800           0
     18260 MEMB     159      SAPE     H10S     HAL2     0.900000E-01   1.00800           0
     18261 MEMB     159      SAPE     C211     CEL1    -0.150000       12.0110           0
     18262 MEMB     159      SAPE     H11R     HEL1     0.150000       1.00800           0
     18263 MEMB     159      SAPE     C212     CEL1    -0.150000       12.0110           0
     18264 MEMB     159      SAPE     H12R     HEL1     0.150000       1.00800           0
     18265 MEMB     159      SAPE     C213     CTL2    -0.180000       12.0110           0
     18266 MEMB     159      SAPE     H13R     HAL2     0.900000E-01   1.00800           0
     18267 MEMB     159      SAPE     H13S     HAL2     0.900000E-01   1.00800           0
     18268 MEMB     159      SAPE     C214     CEL1    -0.150000       12.0110           0
     18269 MEMB     159      SAPE     H14R     HEL1     0.150000       1.00800           0
     18270 MEMB     159      SAPE     C215     CEL1    -0.150000       12.0110           0
     18271 MEMB     159      SAPE     H15R     HEL1     0.150000       1.00800           0
     18272 MEMB     159      SAPE     C216     CTL2    -0.180000       12.0110           0
     18273 MEMB     159      SAPE     H16R     HAL2     0.900000E-01   1.00800           0
     18274 MEMB     159      SAPE     H16S     HAL2     0.900000E-01   1.00800           0
     18275 MEMB     159      SAPE     C217     CTL2    -0.180000       12.0110           0
     18276 MEMB     159      SAPE     H17R     HAL2     0.900000E-01   1.00800           0
     18277 MEMB     159      SAPE     H17S     HAL2     0.900000E-01   1.00800           0
     18278 MEMB     159      SAPE     C218     CTL2    -0.180000       12.0110           0
     18279 MEMB     159      SAPE     H18R     HAL2     0.900000E-01   1.00800           0
     18280 MEMB     159      SAPE     H18S     HAL2     0.900000E-01   1.00800           0
     18281 MEMB     159      SAPE     C219     CTL2    -0.180000       12.0110           0
     18282 MEMB     159      SAPE     H19R     HAL2     0.900000E-01   1.00800           0
     18283 MEMB     159      SAPE     H19S     HAL2     0.900000E-01   1.00800           0
     18284 MEMB     159      SAPE     C220     CTL3    -0.270000       12.0110           0
     18285 MEMB     159      SAPE     H20R     HAL3     0.900000E-01   1.00800           0
     18286 MEMB     159      SAPE     H20S     HAL3     0.900000E-01   1.00800           0
     18287 MEMB     159      SAPE     H20T     HAL3     0.900000E-01   1.00800           0
     18288 MEMB     159      SAPE     C33      CTL2    -0.180000       12.0110           0
     18289 MEMB     159      SAPE     H3X      HAL2     0.900000E-01   1.00800           0
     18290 MEMB     159      SAPE     H3Y      HAL2     0.900000E-01   1.00800           0
     18291 MEMB     159      SAPE     C34      CTL2    -0.180000       12.0110           0
     18292 MEMB     159      SAPE     H4X      HAL2     0.900000E-01   1.00800           0
     18293 MEMB     159      SAPE     H4Y      HAL2     0.900000E-01   1.00800           0
     18294 MEMB     159      SAPE     C35      CTL2    -0.180000       12.0110           0
     18295 MEMB     159      SAPE     H5X      HAL2     0.900000E-01   1.00800           0
     18296 MEMB     159      SAPE     H5Y      HAL2     0.900000E-01   1.00800           0
     18297 MEMB     159      SAPE     C36      CTL2    -0.180000       12.0110           0
     18298 MEMB     159      SAPE     H6X      HAL2     0.900000E-01   1.00800           0
     18299 MEMB     159      SAPE     H6Y      HAL2     0.900000E-01   1.00800           0
     18300 MEMB     159      SAPE     C37      CTL2    -0.180000       12.0110           0
     18301 MEMB     159      SAPE     H7X      HAL2     0.900000E-01   1.00800           0
     18302 MEMB     159      SAPE     H7Y      HAL2     0.900000E-01   1.00800           0
     18303 MEMB     159      SAPE     C38      CTL2    -0.180000       12.0110           0
     18304 MEMB     159      SAPE     H8X      HAL2     0.900000E-01   1.00800           0
     18305 MEMB     159      SAPE     H8Y      HAL2     0.900000E-01   1.00800           0
     18306 MEMB     159      SAPE     C39      CTL2    -0.180000       12.0110           0
     18307 MEMB     159      SAPE     H9X      HAL2     0.900000E-01   1.00800           0
     18308 MEMB     159      SAPE     H9Y      HAL2     0.900000E-01   1.00800           0
     18309 MEMB     159      SAPE     C310     CTL2    -0.180000       12.0110           0
     18310 MEMB     159      SAPE     H10X     HAL2     0.900000E-01   1.00800           0
     18311 MEMB     159      SAPE     H10Y     HAL2     0.900000E-01   1.00800           0
     18312 MEMB     159      SAPE     C311     CTL2    -0.180000       12.0110           0
     18313 MEMB     159      SAPE     H11X     HAL2     0.900000E-01   1.00800           0
     18314 MEMB     159      SAPE     H11Y     HAL2     0.900000E-01   1.00800           0
     18315 MEMB     159      SAPE     C312     CTL2    -0.180000       12.0110           0
     18316 MEMB     159      SAPE     H12X     HAL2     0.900000E-01   1.00800           0
     18317 MEMB     159      SAPE     H12Y     HAL2     0.900000E-01   1.00800           0
     18318 MEMB     159      SAPE     C313     CTL2    -0.180000       12.0110           0
     18319 MEMB     159      SAPE     H13X     HAL2     0.900000E-01   1.00800           0
     18320 MEMB     159      SAPE     H13Y     HAL2     0.900000E-01   1.00800           0
     18321 MEMB     159      SAPE     C314     CTL2    -0.180000       12.0110           0
     18322 MEMB     159      SAPE     H14X     HAL2     0.900000E-01   1.00800           0
     18323 MEMB     159      SAPE     H14Y     HAL2     0.900000E-01   1.00800           0
     18324 MEMB     159      SAPE     C315     CTL2    -0.180000       12.0110           0
     18325 MEMB     159      SAPE     H15X     HAL2     0.900000E-01   1.00800           0
     18326 MEMB     159      SAPE     H15Y     HAL2     0.900000E-01   1.00800           0
     18327 MEMB     159      SAPE     C316     CTL2    -0.180000       12.0110           0
     18328 MEMB     159      SAPE     H16X     HAL2     0.900000E-01   1.00800           0
     18329 MEMB     159      SAPE     H16Y     HAL2     0.900000E-01   1.00800           0
     18330 MEMB     159      SAPE     C317     CTL2    -0.180000       12.0110           0
     18331 MEMB     159      SAPE     H17X     HAL2     0.900000E-01   1.00800           0
     18332 MEMB     159      SAPE     H17Y     HAL2     0.900000E-01   1.00800           0
     18333 MEMB     159      SAPE     C318     CTL3    -0.270000       12.0110           0
     18334 MEMB     159      SAPE     H18X     HAL3     0.900000E-01   1.00800           0
     18335 MEMB     159      SAPE     H18Y     HAL3     0.900000E-01   1.00800           0
     18336 MEMB     159      SAPE     H18Z     HAL3     0.900000E-01   1.00800           0
     18337 MEMB     160      CHL1     C3       CRL1     0.140000       12.0110           0
     18338 MEMB     160      CHL1     H3       HGA1     0.900000E-01   1.00800           0
     18339 MEMB     160      CHL1     O3       OHL     -0.660000       15.9994           0
     18340 MEMB     160      CHL1     H3'      HOL      0.430000       1.00800           0
     18341 MEMB     160      CHL1     C4       CRL2    -0.180000       12.0110           0
     18342 MEMB     160      CHL1     H4A      HGA2     0.900000E-01   1.00800           0
     18343 MEMB     160      CHL1     H4B      HGA2     0.900000E-01   1.00800           0
     18344 MEMB     160      CHL1     C5       CEL1      0.00000       12.0110           0
     18345 MEMB     160      CHL1     C6       CEL1    -0.150000       12.0110           0
     18346 MEMB     160      CHL1     H6       HEL1     0.150000       1.00800           0
     18347 MEMB     160      CHL1     C7       CRL2    -0.180000       12.0110           0
     18348 MEMB     160      CHL1     H7A      HGA2     0.900000E-01   1.00800           0
     18349 MEMB     160      CHL1     H7B      HGA2     0.900000E-01   1.00800           0
     18350 MEMB     160      CHL1     C8       CRL1    -0.900000E-01   12.0110           0
     18351 MEMB     160      CHL1     H8       HGA1     0.900000E-01   1.00800           0
     18352 MEMB     160      CHL1     C14      CRL1    -0.900000E-01   12.0110           0
     18353 MEMB     160      CHL1     H14      HGA1     0.900000E-01   1.00800           0
     18354 MEMB     160      CHL1     C15      CRL2    -0.180000       12.0110           0
     18355 MEMB     160      CHL1     H15A     HGA2     0.900000E-01   1.00800           0
     18356 MEMB     160      CHL1     H15B     HGA2     0.900000E-01   1.00800           0
     18357 MEMB     160      CHL1     C16      CRL2    -0.180000       12.0110           0
     18358 MEMB     160      CHL1     H16A     HGA2     0.900000E-01   1.00800           0
     18359 MEMB     160      CHL1     H16B     HGA2     0.900000E-01   1.00800           0
     18360 MEMB     160      CHL1     C17      CRL1    -0.900000E-01   12.0110           0
     18361 MEMB     160      CHL1     H17      HGA1     0.900000E-01   1.00800           0
     18362 MEMB     160      CHL1     C13      CRL1      0.00000       12.0110           0
     18363 MEMB     160      CHL1     C18      CTL3    -0.270000       12.0110           0
     18364 MEMB     160      CHL1     H18A     HAL3     0.900000E-01   1.00800           0
     18365 MEMB     160      CHL1     H18B     HAL3     0.900000E-01   1.00800           0
     18366 MEMB     160      CHL1     H18C     HAL3     0.900000E-01   1.00800           0
     18367 MEMB     160      CHL1     C12      CRL2    -0.180000       12.0110           0
     18368 MEMB     160      CHL1     H12A     HGA2     0.900000E-01   1.00800           0
     18369 MEMB     160      CHL1     H12B     HGA2     0.900000E-01   1.00800           0
     18370 MEMB     160      CHL1     C11      CRL2    -0.180000       12.0110           0
     18371 MEMB     160      CHL1     H11A     HGA2     0.900000E-01   1.00800           0
     18372 MEMB     160      CHL1     H11B     HGA2     0.900000E-01   1.00800           0
     18373 MEMB     160      CHL1     C9       CRL1    -0.900000E-01   12.0110           0
     18374 MEMB     160      CHL1     H9       HGA1     0.900000E-01   1.00800           0
     18375 MEMB     160      CHL1     C10      CRL1      0.00000       12.0110           0
     18376 MEMB     160      CHL1     C19      CTL3    -0.270000       12.0110           0
     18377 MEMB     160      CHL1     H19A     HAL3     0.900000E-01   1.00800           0
     18378 MEMB     160      CHL1     H19B     HAL3     0.900000E-01   1.00800           0
     18379 MEMB     160      CHL1     H19C     HAL3     0.900000E-01   1.00800           0
     18380 MEMB     160      CHL1     C1       CRL2    -0.180000       12.0110           0
     18381 MEMB     160      CHL1     H1A      HGA2     0.900000E-01   1.00800           0
     18382 MEMB     160      CHL1     H1B      HGA2     0.900000E-01   1.00800           0
     18383 MEMB     160      CHL1     C2       CRL2    -0.180000       12.0110           0
     18384 MEMB     160      CHL1     H2A      HGA2     0.900000E-01   1.00800           0
     18385 MEMB     160      CHL1     H2B      HGA2     0.900000E-01   1.00800           0
     18386 MEMB     160      CHL1     C20      CTL1    -0.900000E-01   12.0110           0
     18387 MEMB     160      CHL1     H20      HAL1     0.900000E-01   1.00800           0
     18388 MEMB     160      CHL1     C21      CTL3    -0.270000       12.0110           0
     18389 MEMB     160      CHL1     H21A     HAL3     0.900000E-01   1.00800           0
     18390 MEMB     160      CHL1     H21B     HAL3     0.900000E-01   1.00800           0
     18391 MEMB     160      CHL1     H21C     HAL3     0.900000E-01   1.00800           0
     18392 MEMB     160      CHL1     C22      CTL2    -0.180000       12.0110           0
     18393 MEMB     160      CHL1     H22A     HAL2     0.900000E-01   1.00800           0
     18394 MEMB     160      CHL1     H22B     HAL2     0.900000E-01   1.00800           0
     18395 MEMB     160      CHL1     C23      CTL2    -0.180000       12.0110           0
     18396 MEMB     160      CHL1     H23A     HAL2     0.900000E-01   1.00800           0
     18397 MEMB     160      CHL1     H23B     HAL2     0.900000E-01   1.00800           0
     18398 MEMB     160      CHL1     C24      CTL2    -0.180000       12.0110           0
     18399 MEMB     160      CHL1     H24A     HAL2     0.900000E-01   1.00800           0
     18400 MEMB     160      CHL1     H24B     HAL2     0.900000E-01   1.00800           0
     18401 MEMB     160      CHL1     C25      CTL1    -0.900000E-01   12.0110           0
     18402 MEMB     160      CHL1     H25      HAL1     0.900000E-01   1.00800           0
     18403 MEMB     160      CHL1     C26      CTL3    -0.270000       12.0110           0
     18404 MEMB     160      CHL1     H26A     HAL3     0.900000E-01   1.00800           0
     18405 MEMB     160      CHL1     H26B     HAL3     0.900000E-01   1.00800           0
     18406 MEMB     160      CHL1     H26C     HAL3     0.900000E-01   1.00800           0
     18407 MEMB     160      CHL1     C27      CTL3    -0.270000       12.0110           0
     18408 MEMB     160      CHL1     H27A     HAL3     0.900000E-01   1.00800           0
     18409 MEMB     160      CHL1     H27B     HAL3     0.900000E-01   1.00800           0
     18410 MEMB     160      CHL1     H27C     HAL3     0.900000E-01   1.00800           0
     18411 MEMB     161      SAPI     C12      CC3161   0.140000       12.0110           0
     18412 MEMB     161      SAPI     H2       HCA1     0.900000E-01   1.00800           0
     18413 MEMB     161      SAPI     O2       OC311   -0.650000       15.9994           0
     18414 MEMB     161      SAPI     HO2      HCP1     0.420000       1.00800           0
     18415 MEMB     161      SAPI     C13      CC3161   0.140000       12.0110           0
     18416 MEMB     161      SAPI     H3       HCA1     0.900000E-01   1.00800           0
     18417 MEMB     161      SAPI     O3       OC311   -0.650000       15.9994           0
     18418 MEMB     161      SAPI     HO3      HCP1     0.420000       1.00800           0
     18419 MEMB     161      SAPI     C14      CC3161   0.140000       12.0110           0
     18420 MEMB     161      SAPI     H4       HCA1     0.900000E-01   1.00800           0
     18421 MEMB     161      SAPI     O4       OC311   -0.650000       15.9994           0
     18422 MEMB     161      SAPI     HO4      HCP1     0.420000       1.00800           0
     18423 MEMB     161      SAPI     C15      CC3161   0.140000       12.0110           0
     18424 MEMB     161      SAPI     H5       HCA1     0.900000E-01   1.00800           0
     18425 MEMB     161      SAPI     O5       OC311   -0.650000       15.9994           0
     18426 MEMB     161      SAPI     HO5      HCP1     0.420000       1.00800           0
     18427 MEMB     161      SAPI     C16      CC3161   0.140000       12.0110           0
     18428 MEMB     161      SAPI     H6       HCA1     0.900000E-01   1.00800           0
     18429 MEMB     161      SAPI     O6       OC311   -0.650000       15.9994           0
     18430 MEMB     161      SAPI     HO6      HCP1     0.420000       1.00800           0
     18431 MEMB     161      SAPI     C11      CC3161  -0.800000E-01   12.0110           0
     18432 MEMB     161      SAPI     H1       HCA1     0.900000E-01   1.00800           0
     18433 MEMB     161      SAPI     P        PL        1.59000       30.9740           0
     18434 MEMB     161      SAPI     O13      O2L     -0.780000       15.9994           0
     18435 MEMB     161      SAPI     O14      O2L     -0.780000       15.9994           0
     18436 MEMB     161      SAPI     O12      OC30P   -0.570000       15.9994           0
     18437 MEMB     161      SAPI     O11      OSLP    -0.570000       15.9994           0
     18438 MEMB     161      SAPI     C1       CTL2    -0.800000E-01   12.0110           0
     18439 MEMB     161      SAPI     HA       HAL2     0.900000E-01   1.00800           0
     18440 MEMB     161      SAPI     HB       HAL2     0.900000E-01   1.00800           0
     18441 MEMB     161      SAPI     C2       CTL1     0.170000       12.0110           0
     18442 MEMB     161      SAPI     HS       HAL1     0.900000E-01   1.00800           0
     18443 MEMB     161      SAPI     O21      OSL     -0.490000       15.9994           0
     18444 MEMB     161      SAPI     C21      CL       0.900000       12.0110           0
     18445 MEMB     161      SAPI     O22      OBL     -0.630000       15.9994           0
     18446 MEMB     161      SAPI     C22      CTL2    -0.220000       12.0110           0
     18447 MEMB     161      SAPI     H2R      HAL2     0.900000E-01   1.00800           0
     18448 MEMB     161      SAPI     H2S      HAL2     0.900000E-01   1.00800           0
     18449 MEMB     161      SAPI     C3       CTL2     0.800000E-01   12.0110           0
     18450 MEMB     161      SAPI     HX       HAL2     0.900000E-01   1.00800           0
     18451 MEMB     161      SAPI     HY       HAL2     0.900000E-01   1.00800           0
     18452 MEMB     161      SAPI     O31      OSL     -0.490000       15.9994           0
     18453 MEMB     161      SAPI     C31      CL       0.900000       12.0110           0
     18454 MEMB     161      SAPI     O32      OBL     -0.630000       15.9994           0
     18455 MEMB     161      SAPI     C32      CTL2    -0.220000       12.0110           0
     18456 MEMB     161      SAPI     H2X      HAL2     0.900000E-01   1.00800           0
     18457 MEMB     161      SAPI     H2Y      HAL2     0.900000E-01   1.00800           0
     18458 MEMB     161      SAPI     C23      CTL2    -0.180000       12.0110           0
     18459 MEMB     161      SAPI     H3R      HAL2     0.900000E-01   1.00800           0
     18460 MEMB     161      SAPI     H3S      HAL2     0.900000E-01   1.00800           0
     18461 MEMB     161      SAPI     C24      CTL2    -0.180000       12.0110           0
     18462 MEMB     161      SAPI     H4R      HAL2     0.900000E-01   1.00800           0
     18463 MEMB     161      SAPI     H4S      HAL2     0.900000E-01   1.00800           0
     18464 MEMB     161      SAPI     C25      CEL1    -0.150000       12.0110           0
     18465 MEMB     161      SAPI     H5R      HEL1     0.150000       1.00800           0
     18466 MEMB     161      SAPI     C26      CEL1    -0.150000       12.0110           0
     18467 MEMB     161      SAPI     H6R      HEL1     0.150000       1.00800           0
     18468 MEMB     161      SAPI     C27      CTL2    -0.180000       12.0110           0
     18469 MEMB     161      SAPI     H7R      HAL2     0.900000E-01   1.00800           0
     18470 MEMB     161      SAPI     H7S      HAL2     0.900000E-01   1.00800           0
     18471 MEMB     161      SAPI     C28      CEL1    -0.150000       12.0110           0
     18472 MEMB     161      SAPI     H8R      HEL1     0.150000       1.00800           0
     18473 MEMB     161      SAPI     C29      CEL1    -0.150000       12.0110           0
     18474 MEMB     161      SAPI     H9R      HEL1     0.150000       1.00800           0
     18475 MEMB     161      SAPI     C210     CTL2    -0.180000       12.0110           0
     18476 MEMB     161      SAPI     H10R     HAL2     0.900000E-01   1.00800           0
     18477 MEMB     161      SAPI     H10S     HAL2     0.900000E-01   1.00800           0
     18478 MEMB     161      SAPI     C211     CEL1    -0.150000       12.0110           0
     18479 MEMB     161      SAPI     H11R     HEL1     0.150000       1.00800           0
     18480 MEMB     161      SAPI     C212     CEL1    -0.150000       12.0110           0
     18481 MEMB     161      SAPI     H12R     HEL1     0.150000       1.00800           0
     18482 MEMB     161      SAPI     C213     CTL2    -0.180000       12.0110           0
     18483 MEMB     161      SAPI     H13R     HAL2     0.900000E-01   1.00800           0
     18484 MEMB     161      SAPI     H13S     HAL2     0.900000E-01   1.00800           0
     18485 MEMB     161      SAPI     C214     CEL1    -0.150000       12.0110           0
     18486 MEMB     161      SAPI     H14R     HEL1     0.150000       1.00800           0
     18487 MEMB     161      SAPI     C215     CEL1    -0.150000       12.0110           0
     18488 MEMB     161      SAPI     H15R     HEL1     0.150000       1.00800           0
     18489 MEMB     161      SAPI     C216     CTL2    -0.180000       12.0110           0
     18490 MEMB     161      SAPI     H16R     HAL2     0.900000E-01   1.00800           0
     18491 MEMB     161      SAPI     H16S     HAL2     0.900000E-01   1.00800           0
     18492 MEMB     161      SAPI     C217     CTL2    -0.180000       12.0110           0
     18493 MEMB     161      SAPI     H17R     HAL2     0.900000E-01   1.00800           0
     18494 MEMB     161      SAPI     H17S     HAL2     0.900000E-01   1.00800           0
     18495 MEMB     161      SAPI     C218     CTL2    -0.180000       12.0110           0
     18496 MEMB     161      SAPI     H18R     HAL2     0.900000E-01   1.00800           0
     18497 MEMB     161      SAPI     H18S     HAL2     0.900000E-01   1.00800           0
     18498 MEMB     161      SAPI     C219     CTL2    -0.180000       12.0110           0
     18499 MEMB     161      SAPI     H19R     HAL2     0.900000E-01   1.00800           0
     18500 MEMB     161      SAPI     H19S     HAL2     0.900000E-01   1.00800           0
     18501 MEMB     161      SAPI     C220     CTL3    -0.270000       12.0110           0
     18502 MEMB     161      SAPI     H20R     HAL3     0.900000E-01   1.00800           0
     18503 MEMB     161      SAPI     H20S     HAL3     0.900000E-01   1.00800           0
     18504 MEMB     161      SAPI     H20T     HAL3     0.900000E-01   1.00800           0
     18505 MEMB     161      SAPI     C33      CTL2    -0.180000       12.0110           0
     18506 MEMB     161      SAPI     H3X      HAL2     0.900000E-01   1.00800           0
     18507 MEMB     161      SAPI     H3Y      HAL2     0.900000E-01   1.00800           0
     18508 MEMB     161      SAPI     C34      CTL2    -0.180000       12.0110           0
     18509 MEMB     161      SAPI     H4X      HAL2     0.900000E-01   1.00800           0
     18510 MEMB     161      SAPI     H4Y      HAL2     0.900000E-01   1.00800           0
     18511 MEMB     161      SAPI     C35      CTL2    -0.180000       12.0110           0
     18512 MEMB     161      SAPI     H5X      HAL2     0.900000E-01   1.00800           0
     18513 MEMB     161      SAPI     H5Y      HAL2     0.900000E-01   1.00800           0
     18514 MEMB     161      SAPI     C36      CTL2    -0.180000       12.0110           0
     18515 MEMB     161      SAPI     H6X      HAL2     0.900000E-01   1.00800           0
     18516 MEMB     161      SAPI     H6Y      HAL2     0.900000E-01   1.00800           0
     18517 MEMB     161      SAPI     C37      CTL2    -0.180000       12.0110           0
     18518 MEMB     161      SAPI     H7X      HAL2     0.900000E-01   1.00800           0
     18519 MEMB     161      SAPI     H7Y      HAL2     0.900000E-01   1.00800           0
     18520 MEMB     161      SAPI     C38      CTL2    -0.180000       12.0110           0
     18521 MEMB     161      SAPI     H8X      HAL2     0.900000E-01   1.00800           0
     18522 MEMB     161      SAPI     H8Y      HAL2     0.900000E-01   1.00800           0
     18523 MEMB     161      SAPI     C39      CTL2    -0.180000       12.0110           0
     18524 MEMB     161      SAPI     H9X      HAL2     0.900000E-01   1.00800           0
     18525 MEMB     161      SAPI     H9Y      HAL2     0.900000E-01   1.00800           0
     18526 MEMB     161      SAPI     C310     CTL2    -0.180000       12.0110           0
     18527 MEMB     161      SAPI     H10X     HAL2     0.900000E-01   1.00800           0
     18528 MEMB     161      SAPI     H10Y     HAL2     0.900000E-01   1.00800           0
     18529 MEMB     161      SAPI     C311     CTL2    -0.180000       12.0110           0
     18530 MEMB     161      SAPI     H11X     HAL2     0.900000E-01   1.00800           0
     18531 MEMB     161      SAPI     H11Y     HAL2     0.900000E-01   1.00800           0
     18532 MEMB     161      SAPI     C312     CTL2    -0.180000       12.0110           0
     18533 MEMB     161      SAPI     H12X     HAL2     0.900000E-01   1.00800           0
     18534 MEMB     161      SAPI     H12Y     HAL2     0.900000E-01   1.00800           0
     18535 MEMB     161      SAPI     C313     CTL2    -0.180000       12.0110           0
     18536 MEMB     161      SAPI     H13X     HAL2     0.900000E-01   1.00800           0
     18537 MEMB     161      SAPI     H13Y     HAL2     0.900000E-01   1.00800           0
     18538 MEMB     161      SAPI     C314     CTL2    -0.180000       12.0110           0
     18539 MEMB     161      SAPI     H14X     HAL2     0.900000E-01   1.00800           0
     18540 MEMB     161      SAPI     H14Y     HAL2     0.900000E-01   1.00800           0
     18541 MEMB     161      SAPI     C315     CTL2    -0.180000       12.0110           0
     18542 MEMB     161      SAPI     H15X     HAL2     0.900000E-01   1.00800           0
     18543 MEMB     161      SAPI     H15Y     HAL2     0.900000E-01   1.00800           0
     18544 MEMB     161      SAPI     C316     CTL2    -0.180000       12.0110           0
     18545 MEMB     161      SAPI     H16X     HAL2     0.900000E-01   1.00800           0
     18546 MEMB     161      SAPI     H16Y     HAL2     0.900000E-01   1.00800           0
     18547 MEMB     161      SAPI     C317     CTL2    -0.180000       12.0110           0
     18548 MEMB     161      SAPI     H17X     HAL2     0.900000E-01   1.00800           0
     18549 MEMB     161      SAPI     H17Y     HAL2     0.900000E-01   1.00800           0
     18550 MEMB     161      SAPI     C318     CTL3    -0.270000       12.0110           0
     18551 MEMB     161      SAPI     H18X     HAL3     0.900000E-01   1.00800           0
     18552 MEMB     161      SAPI     H18Y     HAL3     0.900000E-01   1.00800           0
     18553 MEMB     161      SAPI     H18Z     HAL3     0.900000E-01   1.00800           0
     18554 MEMB     162      OSM      N        NTL     -0.600000       14.0070           0
     18555 MEMB     162      OSM      C15      CTL5    -0.350000       12.0110           0
     18556 MEMB     162      OSM      H15A     HL       0.250000       1.00800           0
     18557 MEMB     162      OSM      H15B     HL       0.250000       1.00800           0
     18558 MEMB     162      OSM      H15C     HL       0.250000       1.00800           0
     18559 MEMB     162      OSM      C14      CTL5    -0.350000       12.0110           0
     18560 MEMB     162      OSM      H14A     HL       0.250000       1.00800           0
     18561 MEMB     162      OSM      H14B     HL       0.250000       1.00800           0
     18562 MEMB     162      OSM      H14C     HL       0.250000       1.00800           0
     18563 MEMB     162      OSM      C13      CTL5    -0.350000       12.0110           0
     18564 MEMB     162      OSM      H13A     HL       0.250000       1.00800           0
     18565 MEMB     162      OSM      H13B     HL       0.250000       1.00800           0
     18566 MEMB     162      OSM      H13C     HL       0.250000       1.00800           0
     18567 MEMB     162      OSM      C12      CTL2    -0.100000       12.0110           0
     18568 MEMB     162      OSM      H12A     HL       0.250000       1.00800           0
     18569 MEMB     162      OSM      H12B     HL       0.250000       1.00800           0
     18570 MEMB     162      OSM      C11      CTL2    -0.800000E-01   12.0110           0
     18571 MEMB     162      OSM      H11A     HAL2     0.900000E-01   1.00800           0
     18572 MEMB     162      OSM      H11B     HAL2     0.900000E-01   1.00800           0
     18573 MEMB     162      OSM      P        PL        1.50000       30.9740           0
     18574 MEMB     162      OSM      O13      O2L     -0.780000       15.9994           0
     18575 MEMB     162      OSM      O14      O2L     -0.780000       15.9994           0
     18576 MEMB     162      OSM      O11      OSLP    -0.570000       15.9994           0
     18577 MEMB     162      OSM      O12      OSLP    -0.570000       15.9994           0
     18578 MEMB     162      OSM      C1S      CTL2    -0.800000E-01   12.0110           0
     18579 MEMB     162      OSM      H1S      HAL2     0.900000E-01   1.00800           0
     18580 MEMB     162      OSM      H1T      HAL2     0.900000E-01   1.00800           0
     18581 MEMB     162      OSM      NF       NHL     -0.700000       14.0070           0
     18582 MEMB     162      OSM      HNF      H        0.350000       1.00800           0
     18583 MEMB     162      OSM      C2S      CTL1     0.300000       12.0110           0
     18584 MEMB     162      OSM      H2S      HAL1     0.500000E-01   1.00800           0
     18585 MEMB     162      OSM      C3S      CTO1     0.500000       12.0110           0
     18586 MEMB     162      OSM      H3S      HAL1    -0.110000       1.00800           0
     18587 MEMB     162      OSM      O3       OHL     -0.690000       15.9994           0
     18588 MEMB     162      OSM      HO3      HOL      0.300000       1.00800           0
     18589 MEMB     162      OSM      C4S      CEL3    -0.150000       12.0110           0
     18590 MEMB     162      OSM      H4S      HEL1     0.150000       1.00800           0
     18591 MEMB     162      OSM      C5S      CEL3    -0.150000       12.0110           0
     18592 MEMB     162      OSM      H5S      HEL1     0.150000       1.00800           0
     18593 MEMB     162      OSM      C6S      CTL2    -0.180000       12.0110           0
     18594 MEMB     162      OSM      H6S      HAL2     0.900000E-01   1.00800           0
     18595 MEMB     162      OSM      H6T      HAL2     0.900000E-01   1.00800           0
     18596 MEMB     162      OSM      C7S      CTL2    -0.180000       12.0110           0
     18597 MEMB     162      OSM      H7S      HAL2     0.900000E-01   1.00800           0
     18598 MEMB     162      OSM      H7T      HAL2     0.900000E-01   1.00800           0
     18599 MEMB     162      OSM      C8S      CTL2    -0.180000       12.0110           0
     18600 MEMB     162      OSM      H8S      HAL2     0.900000E-01   1.00800           0
     18601 MEMB     162      OSM      H8T      HAL2     0.900000E-01   1.00800           0
     18602 MEMB     162      OSM      C9S      CTL2    -0.180000       12.0110           0
     18603 MEMB     162      OSM      H9S      HAL2     0.900000E-01   1.00800           0
     18604 MEMB     162      OSM      H9T      HAL2     0.900000E-01   1.00800           0
     18605 MEMB     162      OSM      C10S     CTL2    -0.180000       12.0110           0
     18606 MEMB     162      OSM      H10S     HAL2     0.900000E-01   1.00800           0
     18607 MEMB     162      OSM      H10T     HAL2     0.900000E-01   1.00800           0
     18608 MEMB     162      OSM      C11S     CTL2    -0.180000       12.0110           0
     18609 MEMB     162      OSM      H11S     HAL2     0.900000E-01   1.00800           0
     18610 MEMB     162      OSM      H11T     HAL2     0.900000E-01   1.00800           0
     18611 MEMB     162      OSM      C12S     CTL2    -0.180000       12.0110           0
     18612 MEMB     162      OSM      H12S     HAL2     0.900000E-01   1.00800           0
     18613 MEMB     162      OSM      H12T     HAL2     0.900000E-01   1.00800           0
     18614 MEMB     162      OSM      C13S     CTL2    -0.180000       12.0110           0
     18615 MEMB     162      OSM      H13S     HAL2     0.900000E-01   1.00800           0
     18616 MEMB     162      OSM      H13T     HAL2     0.900000E-01   1.00800           0
     18617 MEMB     162      OSM      C14S     CTL2    -0.180000       12.0110           0
     18618 MEMB     162      OSM      H14S     HAL2     0.900000E-01   1.00800           0
     18619 MEMB     162      OSM      H14T     HAL2     0.900000E-01   1.00800           0
     18620 MEMB     162      OSM      C15S     CTL2    -0.180000       12.0110           0
     18621 MEMB     162      OSM      H15S     HAL2     0.900000E-01   1.00800           0
     18622 MEMB     162      OSM      H15T     HAL2     0.900000E-01   1.00800           0
     18623 MEMB     162      OSM      C16S     CTL2    -0.180000       12.0110           0
     18624 MEMB     162      OSM      H16S     HAL2     0.900000E-01   1.00800           0
     18625 MEMB     162      OSM      H16T     HAL2     0.900000E-01   1.00800           0
     18626 MEMB     162      OSM      C17S     CTL2    -0.180000       12.0110           0
     18627 MEMB     162      OSM      H17S     HAL2     0.900000E-01   1.00800           0
     18628 MEMB     162      OSM      H17T     HAL2     0.900000E-01   1.00800           0
     18629 MEMB     162      OSM      C18S     CTL3    -0.270000       12.0110           0
     18630 MEMB     162      OSM      H18S     HAL3     0.900000E-01   1.00800           0
     18631 MEMB     162      OSM      H18T     HAL3     0.900000E-01   1.00800           0
     18632 MEMB     162      OSM      H18U     HAL3     0.900000E-01   1.00800           0
     18633 MEMB     162      OSM      C1F      C        0.550000       12.0110           0
     18634 MEMB     162      OSM      OF       O       -0.600000       15.9994           0
     18635 MEMB     162      OSM      C2F      CTL2    -0.700000E-01   12.0110           0
     18636 MEMB     162      OSM      H2F      HAL2     0.600000E-01   1.00800           0
     18637 MEMB     162      OSM      H2G      HAL2     0.600000E-01   1.00800           0
     18638 MEMB     162      OSM      C3F      CTL2    -0.180000       12.0110           0
     18639 MEMB     162      OSM      H3F      HAL2     0.900000E-01   1.00800           0
     18640 MEMB     162      OSM      H3G      HAL2     0.900000E-01   1.00800           0
     18641 MEMB     162      OSM      C4F      CTL2    -0.180000       12.0110           0
     18642 MEMB     162      OSM      H4F      HAL2     0.900000E-01   1.00800           0
     18643 MEMB     162      OSM      H4G      HAL2     0.900000E-01   1.00800           0
     18644 MEMB     162      OSM      C5F      CTL2    -0.180000       12.0110           0
     18645 MEMB     162      OSM      H5F      HAL2     0.900000E-01   1.00800           0
     18646 MEMB     162      OSM      H5G      HAL2     0.900000E-01   1.00800           0
     18647 MEMB     162      OSM      C6F      CTL2    -0.180000       12.0110           0
     18648 MEMB     162      OSM      H6F      HAL2     0.900000E-01   1.00800           0
     18649 MEMB     162      OSM      H6G      HAL2     0.900000E-01   1.00800           0
     18650 MEMB     162      OSM      C7F      CTL2    -0.180000       12.0110           0
     18651 MEMB     162      OSM      H7F      HAL2     0.900000E-01   1.00800           0
     18652 MEMB     162      OSM      H7G      HAL2     0.900000E-01   1.00800           0
     18653 MEMB     162      OSM      C8F      CTL2    -0.180000       12.0110           0
     18654 MEMB     162      OSM      H8F      HAL2     0.900000E-01   1.00800           0
     18655 MEMB     162      OSM      H8G      HAL2     0.900000E-01   1.00800           0
     18656 MEMB     162      OSM      C9F      CEL1    -0.150000       12.0110           0
     18657 MEMB     162      OSM      H9F      HEL1     0.150000       1.00800           0
     18658 MEMB     162      OSM      C10F     CEL1    -0.150000       12.0110           0
     18659 MEMB     162      OSM      H10F     HEL1     0.150000       1.00800           0
     18660 MEMB     162      OSM      C11F     CTL2    -0.180000       12.0110           0
     18661 MEMB     162      OSM      H11F     HAL2     0.900000E-01   1.00800           0
     18662 MEMB     162      OSM      H11G     HAL2     0.900000E-01   1.00800           0
     18663 MEMB     162      OSM      C12F     CTL2    -0.180000       12.0110           0
     18664 MEMB     162      OSM      H12F     HAL2     0.900000E-01   1.00800           0
     18665 MEMB     162      OSM      H12G     HAL2     0.900000E-01   1.00800           0
     18666 MEMB     162      OSM      C13F     CTL2    -0.180000       12.0110           0
     18667 MEMB     162      OSM      H13F     HAL2     0.900000E-01   1.00800           0
     18668 MEMB     162      OSM      H13G     HAL2     0.900000E-01   1.00800           0
     18669 MEMB     162      OSM      C14F     CTL2    -0.180000       12.0110           0
     18670 MEMB     162      OSM      H14F     HAL2     0.900000E-01   1.00800           0
     18671 MEMB     162      OSM      H14G     HAL2     0.900000E-01   1.00800           0
     18672 MEMB     162      OSM      C15F     CTL2    -0.180000       12.0110           0
     18673 MEMB     162      OSM      H15F     HAL2     0.900000E-01   1.00800           0
     18674 MEMB     162      OSM      H15G     HAL2     0.900000E-01   1.00800           0
     18675 MEMB     162      OSM      C16F     CTL2    -0.180000       12.0110           0
     18676 MEMB     162      OSM      H16F     HAL2     0.900000E-01   1.00800           0
     18677 MEMB     162      OSM      H16G     HAL2     0.900000E-01   1.00800           0
     18678 MEMB     162      OSM      C17F     CTL2    -0.180000       12.0110           0
     18679 MEMB     162      OSM      H17F     HAL2     0.900000E-01   1.00800           0
     18680 MEMB     162      OSM      H17G     HAL2     0.900000E-01   1.00800           0
     18681 MEMB     162      OSM      C18F     CTL3    -0.270000       12.0110           0
     18682 MEMB     162      OSM      H18F     HAL3     0.900000E-01   1.00800           0
     18683 MEMB     162      OSM      H18G     HAL3     0.900000E-01   1.00800           0
     18684 MEMB     162      OSM      H18H     HAL3     0.900000E-01   1.00800           0
     18685 MEMB     163      SAPC     N        NTL     -0.600000       14.0070           0
     18686 MEMB     163      SAPC     C12      CTL2    -0.100000       12.0110           0
     18687 MEMB     163      SAPC     H12A     HL       0.250000       1.00800           0
     18688 MEMB     163      SAPC     H12B     HL       0.250000       1.00800           0
     18689 MEMB     163      SAPC     C13      CTL5    -0.350000       12.0110           0
     18690 MEMB     163      SAPC     H13A     HL       0.250000       1.00800           0
     18691 MEMB     163      SAPC     H13B     HL       0.250000       1.00800           0
     18692 MEMB     163      SAPC     H13C     HL       0.250000       1.00800           0
     18693 MEMB     163      SAPC     C14      CTL5    -0.350000       12.0110           0
     18694 MEMB     163      SAPC     H14A     HL       0.250000       1.00800           0
     18695 MEMB     163      SAPC     H14B     HL       0.250000       1.00800           0
     18696 MEMB     163      SAPC     H14C     HL       0.250000       1.00800           0
     18697 MEMB     163      SAPC     C15      CTL5    -0.350000       12.0110           0
     18698 MEMB     163      SAPC     H15A     HL       0.250000       1.00800           0
     18699 MEMB     163      SAPC     H15B     HL       0.250000       1.00800           0
     18700 MEMB     163      SAPC     H15C     HL       0.250000       1.00800           0
     18701 MEMB     163      SAPC     C11      CTL2    -0.800000E-01   12.0110           0
     18702 MEMB     163      SAPC     H11A     HAL2     0.900000E-01   1.00800           0
     18703 MEMB     163      SAPC     H11B     HAL2     0.900000E-01   1.00800           0
     18704 MEMB     163      SAPC     P        PL        1.50000       30.9740           0
     18705 MEMB     163      SAPC     O13      O2L     -0.780000       15.9994           0
     18706 MEMB     163      SAPC     O14      O2L     -0.780000       15.9994           0
     18707 MEMB     163      SAPC     O12      OSLP    -0.570000       15.9994           0
     18708 MEMB     163      SAPC     O11      OSLP    -0.570000       15.9994           0
     18709 MEMB     163      SAPC     C1       CTL2    -0.800000E-01   12.0110           0
     18710 MEMB     163      SAPC     HA       HAL2     0.900000E-01   1.00800           0
     18711 MEMB     163      SAPC     HB       HAL2     0.900000E-01   1.00800           0
     18712 MEMB     163      SAPC     C2       CTL1     0.170000       12.0110           0
     18713 MEMB     163      SAPC     HS       HAL1     0.900000E-01   1.00800           0
     18714 MEMB     163      SAPC     O21      OSL     -0.490000       15.9994           0
     18715 MEMB     163      SAPC     C21      CL       0.900000       12.0110           0
     18716 MEMB     163      SAPC     O22      OBL     -0.630000       15.9994           0
     18717 MEMB     163      SAPC     C22      CTL2    -0.220000       12.0110           0
     18718 MEMB     163      SAPC     H2R      HAL2     0.900000E-01   1.00800           0
     18719 MEMB     163      SAPC     H2S      HAL2     0.900000E-01   1.00800           0
     18720 MEMB     163      SAPC     C3       CTL2     0.800000E-01   12.0110           0
     18721 MEMB     163      SAPC     HX       HAL2     0.900000E-01   1.00800           0
     18722 MEMB     163      SAPC     HY       HAL2     0.900000E-01   1.00800           0
     18723 MEMB     163      SAPC     O31      OSL     -0.490000       15.9994           0
     18724 MEMB     163      SAPC     C31      CL       0.900000       12.0110           0
     18725 MEMB     163      SAPC     O32      OBL     -0.630000       15.9994           0
     18726 MEMB     163      SAPC     C32      CTL2    -0.220000       12.0110           0
     18727 MEMB     163      SAPC     H2X      HAL2     0.900000E-01   1.00800           0
     18728 MEMB     163      SAPC     H2Y      HAL2     0.900000E-01   1.00800           0
     18729 MEMB     163      SAPC     C23      CTL2    -0.180000       12.0110           0
     18730 MEMB     163      SAPC     H3R      HAL2     0.900000E-01   1.00800           0
     18731 MEMB     163      SAPC     H3S      HAL2     0.900000E-01   1.00800           0
     18732 MEMB     163      SAPC     C24      CTL2    -0.180000       12.0110           0
     18733 MEMB     163      SAPC     H4R      HAL2     0.900000E-01   1.00800           0
     18734 MEMB     163      SAPC     H4S      HAL2     0.900000E-01   1.00800           0
     18735 MEMB     163      SAPC     C25      CEL1    -0.150000       12.0110           0
     18736 MEMB     163      SAPC     H5R      HEL1     0.150000       1.00800           0
     18737 MEMB     163      SAPC     C26      CEL1    -0.150000       12.0110           0
     18738 MEMB     163      SAPC     H6R      HEL1     0.150000       1.00800           0
     18739 MEMB     163      SAPC     C27      CTL2    -0.180000       12.0110           0
     18740 MEMB     163      SAPC     H7R      HAL2     0.900000E-01   1.00800           0
     18741 MEMB     163      SAPC     H7S      HAL2     0.900000E-01   1.00800           0
     18742 MEMB     163      SAPC     C28      CEL1    -0.150000       12.0110           0
     18743 MEMB     163      SAPC     H8R      HEL1     0.150000       1.00800           0
     18744 MEMB     163      SAPC     C29      CEL1    -0.150000       12.0110           0
     18745 MEMB     163      SAPC     H9R      HEL1     0.150000       1.00800           0
     18746 MEMB     163      SAPC     C210     CTL2    -0.180000       12.0110           0
     18747 MEMB     163      SAPC     H10R     HAL2     0.900000E-01   1.00800           0
     18748 MEMB     163      SAPC     H10S     HAL2     0.900000E-01   1.00800           0
     18749 MEMB     163      SAPC     C211     CEL1    -0.150000       12.0110           0
     18750 MEMB     163      SAPC     H11R     HEL1     0.150000       1.00800           0
     18751 MEMB     163      SAPC     C212     CEL1    -0.150000       12.0110           0
     18752 MEMB     163      SAPC     H12R     HEL1     0.150000       1.00800           0
     18753 MEMB     163      SAPC     C213     CTL2    -0.180000       12.0110           0
     18754 MEMB     163      SAPC     H13R     HAL2     0.900000E-01   1.00800           0
     18755 MEMB     163      SAPC     H13S     HAL2     0.900000E-01   1.00800           0
     18756 MEMB     163      SAPC     C214     CEL1    -0.150000       12.0110           0
     18757 MEMB     163      SAPC     H14R     HEL1     0.150000       1.00800           0
     18758 MEMB     163      SAPC     C215     CEL1    -0.150000       12.0110           0
     18759 MEMB     163      SAPC     H15R     HEL1     0.150000       1.00800           0
     18760 MEMB     163      SAPC     C216     CTL2    -0.180000       12.0110           0
     18761 MEMB     163      SAPC     H16R     HAL2     0.900000E-01   1.00800           0
     18762 MEMB     163      SAPC     H16S     HAL2     0.900000E-01   1.00800           0
     18763 MEMB     163      SAPC     C217     CTL2    -0.180000       12.0110           0
     18764 MEMB     163      SAPC     H17R     HAL2     0.900000E-01   1.00800           0
     18765 MEMB     163      SAPC     H17S     HAL2     0.900000E-01   1.00800           0
     18766 MEMB     163      SAPC     C218     CTL2    -0.270000       12.0110           0
     18767 MEMB     163      SAPC     H18R     HAL2     0.900000E-01   1.00800           0
     18768 MEMB     163      SAPC     H18S     HAL2     0.900000E-01   1.00800           0
     18769 MEMB     163      SAPC     C219     CTL2    -0.180000       12.0110           0
     18770 MEMB     163      SAPC     H19R     HAL2     0.900000E-01   1.00800           0
     18771 MEMB     163      SAPC     H19S     HAL2     0.900000E-01   1.00800           0
     18772 MEMB     163      SAPC     C220     CTL3    -0.180000       12.0110           0
     18773 MEMB     163      SAPC     H20R     HAL3     0.900000E-01   1.00800           0
     18774 MEMB     163      SAPC     H20S     HAL3     0.900000E-01   1.00800           0
     18775 MEMB     163      SAPC     H20T     HAL3     0.900000E-01   1.00800           0
     18776 MEMB     163      SAPC     C33      CTL2    -0.180000       12.0110           0
     18777 MEMB     163      SAPC     H3X      HAL2     0.900000E-01   1.00800           0
     18778 MEMB     163      SAPC     H3Y      HAL2     0.900000E-01   1.00800           0
     18779 MEMB     163      SAPC     C34      CTL2    -0.180000       12.0110           0
     18780 MEMB     163      SAPC     H4X      HAL2     0.900000E-01   1.00800           0
     18781 MEMB     163      SAPC     H4Y      HAL2     0.900000E-01   1.00800           0
     18782 MEMB     163      SAPC     C35      CTL2    -0.180000       12.0110           0
     18783 MEMB     163      SAPC     H5X      HAL2     0.900000E-01   1.00800           0
     18784 MEMB     163      SAPC     H5Y      HAL2     0.900000E-01   1.00800           0
     18785 MEMB     163      SAPC     C36      CTL2    -0.180000       12.0110           0
     18786 MEMB     163      SAPC     H6X      HAL2     0.900000E-01   1.00800           0
     18787 MEMB     163      SAPC     H6Y      HAL2     0.900000E-01   1.00800           0
     18788 MEMB     163      SAPC     C37      CTL2    -0.180000       12.0110           0
     18789 MEMB     163      SAPC     H7X      HAL2     0.900000E-01   1.00800           0
     18790 MEMB     163      SAPC     H7Y      HAL2     0.900000E-01   1.00800           0
     18791 MEMB     163      SAPC     C38      CTL2    -0.180000       12.0110           0
     18792 MEMB     163      SAPC     H8X      HAL2     0.900000E-01   1.00800           0
     18793 MEMB     163      SAPC     H8Y      HAL2     0.900000E-01   1.00800           0
     18794 MEMB     163      SAPC     C39      CTL2    -0.180000       12.0110           0
     18795 MEMB     163      SAPC     H9X      HAL2     0.900000E-01   1.00800           0
     18796 MEMB     163      SAPC     H9Y      HAL2     0.900000E-01   1.00800           0
     18797 MEMB     163      SAPC     C310     CTL2    -0.180000       12.0110           0
     18798 MEMB     163      SAPC     H10X     HAL2     0.900000E-01   1.00800           0
     18799 MEMB     163      SAPC     H10Y     HAL2     0.900000E-01   1.00800           0
     18800 MEMB     163      SAPC     C311     CTL2    -0.180000       12.0110           0
     18801 MEMB     163      SAPC     H11X     HAL2     0.900000E-01   1.00800           0
     18802 MEMB     163      SAPC     H11Y     HAL2     0.900000E-01   1.00800           0
     18803 MEMB     163      SAPC     C312     CTL2    -0.180000       12.0110           0
     18804 MEMB     163      SAPC     H12X     HAL2     0.900000E-01   1.00800           0
     18805 MEMB     163      SAPC     H12Y     HAL2     0.900000E-01   1.00800           0
     18806 MEMB     163      SAPC     C313     CTL2    -0.180000       12.0110           0
     18807 MEMB     163      SAPC     H13X     HAL2     0.900000E-01   1.00800           0
     18808 MEMB     163      SAPC     H13Y     HAL2     0.900000E-01   1.00800           0
     18809 MEMB     163      SAPC     C314     CTL2    -0.180000       12.0110           0
     18810 MEMB     163      SAPC     H14X     HAL2     0.900000E-01   1.00800           0
     18811 MEMB     163      SAPC     H14Y     HAL2     0.900000E-01   1.00800           0
     18812 MEMB     163      SAPC     C315     CTL2    -0.180000       12.0110           0
     18813 MEMB     163      SAPC     H15X     HAL2     0.900000E-01   1.00800           0
     18814 MEMB     163      SAPC     H15Y     HAL2     0.900000E-01   1.00800           0
     18815 MEMB     163      SAPC     C316     CTL2    -0.180000       12.0110           0
     18816 MEMB     163      SAPC     H16X     HAL2     0.900000E-01   1.00800           0
     18817 MEMB     163      SAPC     H16Y     HAL2     0.900000E-01   1.00800           0
     18818 MEMB     163      SAPC     C317     CTL2    -0.180000       12.0110           0
     18819 MEMB     163      SAPC     H17X     HAL2     0.900000E-01   1.00800           0
     18820 MEMB     163      SAPC     H17Y     HAL2     0.900000E-01   1.00800           0
     18821 MEMB     163      SAPC     C318     CTL3    -0.270000       12.0110           0
     18822 MEMB     163      SAPC     H18X     HAL3     0.900000E-01   1.00800           0
     18823 MEMB     163      SAPC     H18Y     HAL3     0.900000E-01   1.00800           0
     18824 MEMB     163      SAPC     H18Z     HAL3     0.900000E-01   1.00800           0
     18825 MEMB     164      CHL1     C3       CRL1     0.140000       12.0110           0
     18826 MEMB     164      CHL1     H3       HGA1     0.900000E-01   1.00800           0
     18827 MEMB     164      CHL1     O3       OHL     -0.660000       15.9994           0
     18828 MEMB     164      CHL1     H3'      HOL      0.430000       1.00800           0
     18829 MEMB     164      CHL1     C4       CRL2    -0.180000       12.0110           0
     18830 MEMB     164      CHL1     H4A      HGA2     0.900000E-01   1.00800           0
     18831 MEMB     164      CHL1     H4B      HGA2     0.900000E-01   1.00800           0
     18832 MEMB     164      CHL1     C5       CEL1      0.00000       12.0110           0
     18833 MEMB     164      CHL1     C6       CEL1    -0.150000       12.0110           0
     18834 MEMB     164      CHL1     H6       HEL1     0.150000       1.00800           0
     18835 MEMB     164      CHL1     C7       CRL2    -0.180000       12.0110           0
     18836 MEMB     164      CHL1     H7A      HGA2     0.900000E-01   1.00800           0
     18837 MEMB     164      CHL1     H7B      HGA2     0.900000E-01   1.00800           0
     18838 MEMB     164      CHL1     C8       CRL1    -0.900000E-01   12.0110           0
     18839 MEMB     164      CHL1     H8       HGA1     0.900000E-01   1.00800           0
     18840 MEMB     164      CHL1     C14      CRL1    -0.900000E-01   12.0110           0
     18841 MEMB     164      CHL1     H14      HGA1     0.900000E-01   1.00800           0
     18842 MEMB     164      CHL1     C15      CRL2    -0.180000       12.0110           0
     18843 MEMB     164      CHL1     H15A     HGA2     0.900000E-01   1.00800           0
     18844 MEMB     164      CHL1     H15B     HGA2     0.900000E-01   1.00800           0
     18845 MEMB     164      CHL1     C16      CRL2    -0.180000       12.0110           0
     18846 MEMB     164      CHL1     H16A     HGA2     0.900000E-01   1.00800           0
     18847 MEMB     164      CHL1     H16B     HGA2     0.900000E-01   1.00800           0
     18848 MEMB     164      CHL1     C17      CRL1    -0.900000E-01   12.0110           0
     18849 MEMB     164      CHL1     H17      HGA1     0.900000E-01   1.00800           0
     18850 MEMB     164      CHL1     C13      CRL1      0.00000       12.0110           0
     18851 MEMB     164      CHL1     C18      CTL3    -0.270000       12.0110           0
     18852 MEMB     164      CHL1     H18A     HAL3     0.900000E-01   1.00800           0
     18853 MEMB     164      CHL1     H18B     HAL3     0.900000E-01   1.00800           0
     18854 MEMB     164      CHL1     H18C     HAL3     0.900000E-01   1.00800           0
     18855 MEMB     164      CHL1     C12      CRL2    -0.180000       12.0110           0
     18856 MEMB     164      CHL1     H12A     HGA2     0.900000E-01   1.00800           0
     18857 MEMB     164      CHL1     H12B     HGA2     0.900000E-01   1.00800           0
     18858 MEMB     164      CHL1     C11      CRL2    -0.180000       12.0110           0
     18859 MEMB     164      CHL1     H11A     HGA2     0.900000E-01   1.00800           0
     18860 MEMB     164      CHL1     H11B     HGA2     0.900000E-01   1.00800           0
     18861 MEMB     164      CHL1     C9       CRL1    -0.900000E-01   12.0110           0
     18862 MEMB     164      CHL1     H9       HGA1     0.900000E-01   1.00800           0
     18863 MEMB     164      CHL1     C10      CRL1      0.00000       12.0110           0
     18864 MEMB     164      CHL1     C19      CTL3    -0.270000       12.0110           0
     18865 MEMB     164      CHL1     H19A     HAL3     0.900000E-01   1.00800           0
     18866 MEMB     164      CHL1     H19B     HAL3     0.900000E-01   1.00800           0
     18867 MEMB     164      CHL1     H19C     HAL3     0.900000E-01   1.00800           0
     18868 MEMB     164      CHL1     C1       CRL2    -0.180000       12.0110           0
     18869 MEMB     164      CHL1     H1A      HGA2     0.900000E-01   1.00800           0
     18870 MEMB     164      CHL1     H1B      HGA2     0.900000E-01   1.00800           0
     18871 MEMB     164      CHL1     C2       CRL2    -0.180000       12.0110           0
     18872 MEMB     164      CHL1     H2A      HGA2     0.900000E-01   1.00800           0
     18873 MEMB     164      CHL1     H2B      HGA2     0.900000E-01   1.00800           0
     18874 MEMB     164      CHL1     C20      CTL1    -0.900000E-01   12.0110           0
     18875 MEMB     164      CHL1     H20      HAL1     0.900000E-01   1.00800           0
     18876 MEMB     164      CHL1     C21      CTL3    -0.270000       12.0110           0
     18877 MEMB     164      CHL1     H21A     HAL3     0.900000E-01   1.00800           0
     18878 MEMB     164      CHL1     H21B     HAL3     0.900000E-01   1.00800           0
     18879 MEMB     164      CHL1     H21C     HAL3     0.900000E-01   1.00800           0
     18880 MEMB     164      CHL1     C22      CTL2    -0.180000       12.0110           0
     18881 MEMB     164      CHL1     H22A     HAL2     0.900000E-01   1.00800           0
     18882 MEMB     164      CHL1     H22B     HAL2     0.900000E-01   1.00800           0
     18883 MEMB     164      CHL1     C23      CTL2    -0.180000       12.0110           0
     18884 MEMB     164      CHL1     H23A     HAL2     0.900000E-01   1.00800           0
     18885 MEMB     164      CHL1     H23B     HAL2     0.900000E-01   1.00800           0
     18886 MEMB     164      CHL1     C24      CTL2    -0.180000       12.0110           0
     18887 MEMB     164      CHL1     H24A     HAL2     0.900000E-01   1.00800           0
     18888 MEMB     164      CHL1     H24B     HAL2     0.900000E-01   1.00800           0
     18889 MEMB     164      CHL1     C25      CTL1    -0.900000E-01   12.0110           0
     18890 MEMB     164      CHL1     H25      HAL1     0.900000E-01   1.00800           0
     18891 MEMB     164      CHL1     C26      CTL3    -0.270000       12.0110           0
     18892 MEMB     164      CHL1     H26A     HAL3     0.900000E-01   1.00800           0
     18893 MEMB     164      CHL1     H26B     HAL3     0.900000E-01   1.00800           0
     18894 MEMB     164      CHL1     H26C     HAL3     0.900000E-01   1.00800           0
     18895 MEMB     164      CHL1     C27      CTL3    -0.270000       12.0110           0
     18896 MEMB     164      CHL1     H27A     HAL3     0.900000E-01   1.00800           0
     18897 MEMB     164      CHL1     H27B     HAL3     0.900000E-01   1.00800           0
     18898 MEMB     164      CHL1     H27C     HAL3     0.900000E-01   1.00800           0
     18899 MEMB     165      SOPE     N        NH3L    -0.300000       14.0070           0
     18900 MEMB     165      SOPE     HN1      HCL      0.330000       1.00800           0
     18901 MEMB     165      SOPE     HN2      HCL      0.330000       1.00800           0
     18902 MEMB     165      SOPE     HN3      HCL      0.330000       1.00800           0
     18903 MEMB     165      SOPE     C12      CTL2     0.130000       12.0110           0
     18904 MEMB     165      SOPE     H12A     HAL2     0.900000E-01   1.00800           0
     18905 MEMB     165      SOPE     H12B     HAL2     0.900000E-01   1.00800           0
     18906 MEMB     165      SOPE     C11      CTL2    -0.800000E-01   12.0110           0
     18907 MEMB     165      SOPE     H11A     HAL2     0.900000E-01   1.00800           0
     18908 MEMB     165      SOPE     H11B     HAL2     0.900000E-01   1.00800           0
     18909 MEMB     165      SOPE     P        PL        1.50000       30.9740           0
     18910 MEMB     165      SOPE     O13      O2L     -0.780000       15.9994           0
     18911 MEMB     165      SOPE     O14      O2L     -0.780000       15.9994           0
     18912 MEMB     165      SOPE     O12      OSLP    -0.570000       15.9994           0
     18913 MEMB     165      SOPE     O11      OSLP    -0.570000       15.9994           0
     18914 MEMB     165      SOPE     C1       CTL2    -0.800000E-01   12.0110           0
     18915 MEMB     165      SOPE     HA       HAL2     0.900000E-01   1.00800           0
     18916 MEMB     165      SOPE     HB       HAL2     0.900000E-01   1.00800           0
     18917 MEMB     165      SOPE     C2       CTL1     0.170000       12.0110           0
     18918 MEMB     165      SOPE     HS       HAL1     0.900000E-01   1.00800           0
     18919 MEMB     165      SOPE     O21      OSL     -0.490000       15.9994           0
     18920 MEMB     165      SOPE     C21      CL       0.900000       12.0110           0
     18921 MEMB     165      SOPE     O22      OBL     -0.630000       15.9994           0
     18922 MEMB     165      SOPE     C22      CTL2    -0.220000       12.0110           0
     18923 MEMB     165      SOPE     H2R      HAL2     0.900000E-01   1.00800           0
     18924 MEMB     165      SOPE     H2S      HAL2     0.900000E-01   1.00800           0
     18925 MEMB     165      SOPE     C3       CTL2     0.800000E-01   12.0110           0
     18926 MEMB     165      SOPE     HX       HAL2     0.900000E-01   1.00800           0
     18927 MEMB     165      SOPE     HY       HAL2     0.900000E-01   1.00800           0
     18928 MEMB     165      SOPE     O31      OSL     -0.490000       15.9994           0
     18929 MEMB     165      SOPE     C31      CL       0.900000       12.0110           0
     18930 MEMB     165      SOPE     O32      OBL     -0.630000       15.9994           0
     18931 MEMB     165      SOPE     C32      CTL2    -0.220000       12.0110           0
     18932 MEMB     165      SOPE     H2X      HAL2     0.900000E-01   1.00800           0
     18933 MEMB     165      SOPE     H2Y      HAL2     0.900000E-01   1.00800           0
     18934 MEMB     165      SOPE     C23      CTL2    -0.180000       12.0110           0
     18935 MEMB     165      SOPE     H3R      HAL2     0.900000E-01   1.00800           0
     18936 MEMB     165      SOPE     H3S      HAL2     0.900000E-01   1.00800           0
     18937 MEMB     165      SOPE     C24      CTL2    -0.180000       12.0110           0
     18938 MEMB     165      SOPE     H4R      HAL2     0.900000E-01   1.00800           0
     18939 MEMB     165      SOPE     H4S      HAL2     0.900000E-01   1.00800           0
     18940 MEMB     165      SOPE     C25      CTL2    -0.180000       12.0110           0
     18941 MEMB     165      SOPE     H5R      HAL2     0.900000E-01   1.00800           0
     18942 MEMB     165      SOPE     H5S      HAL2     0.900000E-01   1.00800           0
     18943 MEMB     165      SOPE     C26      CTL2    -0.180000       12.0110           0
     18944 MEMB     165      SOPE     H6R      HAL2     0.900000E-01   1.00800           0
     18945 MEMB     165      SOPE     H6S      HAL2     0.900000E-01   1.00800           0
     18946 MEMB     165      SOPE     C27      CTL2    -0.180000       12.0110           0
     18947 MEMB     165      SOPE     H7R      HAL2     0.900000E-01   1.00800           0
     18948 MEMB     165      SOPE     H7S      HAL2     0.900000E-01   1.00800           0
     18949 MEMB     165      SOPE     C28      CTL2    -0.180000       12.0110           0
     18950 MEMB     165      SOPE     H8R      HAL2     0.900000E-01   1.00800           0
     18951 MEMB     165      SOPE     H8S      HAL2     0.900000E-01   1.00800           0
     18952 MEMB     165      SOPE     C29      CEL1    -0.150000       12.0110           0
     18953 MEMB     165      SOPE     H91      HEL1     0.150000       1.00800           0
     18954 MEMB     165      SOPE     C210     CEL1    -0.150000       12.0110           0
     18955 MEMB     165      SOPE     H101     HEL1     0.150000       1.00800           0
     18956 MEMB     165      SOPE     C211     CTL2    -0.180000       12.0110           0
     18957 MEMB     165      SOPE     H11R     HAL2     0.900000E-01   1.00800           0
     18958 MEMB     165      SOPE     H11S     HAL2     0.900000E-01   1.00800           0
     18959 MEMB     165      SOPE     C212     CTL2    -0.180000       12.0110           0
     18960 MEMB     165      SOPE     H12R     HAL2     0.900000E-01   1.00800           0
     18961 MEMB     165      SOPE     H12S     HAL2     0.900000E-01   1.00800           0
     18962 MEMB     165      SOPE     C213     CTL2    -0.180000       12.0110           0
     18963 MEMB     165      SOPE     H13R     HAL2     0.900000E-01   1.00800           0
     18964 MEMB     165      SOPE     H13S     HAL2     0.900000E-01   1.00800           0
     18965 MEMB     165      SOPE     C214     CTL2    -0.180000       12.0110           0
     18966 MEMB     165      SOPE     H14R     HAL2     0.900000E-01   1.00800           0
     18967 MEMB     165      SOPE     H14S     HAL2     0.900000E-01   1.00800           0
     18968 MEMB     165      SOPE     C215     CTL2    -0.180000       12.0110           0
     18969 MEMB     165      SOPE     H15R     HAL2     0.900000E-01   1.00800           0
     18970 MEMB     165      SOPE     H15S     HAL2     0.900000E-01   1.00800           0
     18971 MEMB     165      SOPE     C216     CTL2    -0.180000       12.0110           0
     18972 MEMB     165      SOPE     H16R     HAL2     0.900000E-01   1.00800           0
     18973 MEMB     165      SOPE     H16S     HAL2     0.900000E-01   1.00800           0
     18974 MEMB     165      SOPE     C217     CTL2    -0.180000       12.0110           0
     18975 MEMB     165      SOPE     H17R     HAL2     0.900000E-01   1.00800           0
     18976 MEMB     165      SOPE     H17S     HAL2     0.900000E-01   1.00800           0
     18977 MEMB     165      SOPE     C218     CTL3    -0.270000       12.0110           0
     18978 MEMB     165      SOPE     H18R     HAL3     0.900000E-01   1.00800           0
     18979 MEMB     165      SOPE     H18S     HAL3     0.900000E-01   1.00800           0
     18980 MEMB     165      SOPE     H18T     HAL3     0.900000E-01   1.00800           0
     18981 MEMB     165      SOPE     C33      CTL2    -0.180000       12.0110           0
     18982 MEMB     165      SOPE     H3X      HAL2     0.900000E-01   1.00800           0
     18983 MEMB     165      SOPE     H3Y      HAL2     0.900000E-01   1.00800           0
     18984 MEMB     165      SOPE     C34      CTL2    -0.180000       12.0110           0
     18985 MEMB     165      SOPE     H4X      HAL2     0.900000E-01   1.00800           0
     18986 MEMB     165      SOPE     H4Y      HAL2     0.900000E-01   1.00800           0
     18987 MEMB     165      SOPE     C35      CTL2    -0.180000       12.0110           0
     18988 MEMB     165      SOPE     H5X      HAL2     0.900000E-01   1.00800           0
     18989 MEMB     165      SOPE     H5Y      HAL2     0.900000E-01   1.00800           0
     18990 MEMB     165      SOPE     C36      CTL2    -0.180000       12.0110           0
     18991 MEMB     165      SOPE     H6X      HAL2     0.900000E-01   1.00800           0
     18992 MEMB     165      SOPE     H6Y      HAL2     0.900000E-01   1.00800           0
     18993 MEMB     165      SOPE     C37      CTL2    -0.180000       12.0110           0
     18994 MEMB     165      SOPE     H7X      HAL2     0.900000E-01   1.00800           0
     18995 MEMB     165      SOPE     H7Y      HAL2     0.900000E-01   1.00800           0
     18996 MEMB     165      SOPE     C38      CTL2    -0.180000       12.0110           0
     18997 MEMB     165      SOPE     H8X      HAL2     0.900000E-01   1.00800           0
     18998 MEMB     165      SOPE     H8Y      HAL2     0.900000E-01   1.00800           0
     18999 MEMB     165      SOPE     C39      CTL2    -0.180000       12.0110           0
     19000 MEMB     165      SOPE     H9X      HAL2     0.900000E-01   1.00800           0
     19001 MEMB     165      SOPE     H9Y      HAL2     0.900000E-01   1.00800           0
     19002 MEMB     165      SOPE     C310     CTL2    -0.180000       12.0110           0
     19003 MEMB     165      SOPE     H10X     HAL2     0.900000E-01   1.00800           0
     19004 MEMB     165      SOPE     H10Y     HAL2     0.900000E-01   1.00800           0
     19005 MEMB     165      SOPE     C311     CTL2    -0.180000       12.0110           0
     19006 MEMB     165      SOPE     H11X     HAL2     0.900000E-01   1.00800           0
     19007 MEMB     165      SOPE     H11Y     HAL2     0.900000E-01   1.00800           0
     19008 MEMB     165      SOPE     C312     CTL2    -0.180000       12.0110           0
     19009 MEMB     165      SOPE     H12X     HAL2     0.900000E-01   1.00800           0
     19010 MEMB     165      SOPE     H12Y     HAL2     0.900000E-01   1.00800           0
     19011 MEMB     165      SOPE     C313     CTL2    -0.180000       12.0110           0
     19012 MEMB     165      SOPE     H13X     HAL2     0.900000E-01   1.00800           0
     19013 MEMB     165      SOPE     H13Y     HAL2     0.900000E-01   1.00800           0
     19014 MEMB     165      SOPE     C314     CTL2    -0.180000       12.0110           0
     19015 MEMB     165      SOPE     H14X     HAL2     0.900000E-01   1.00800           0
     19016 MEMB     165      SOPE     H14Y     HAL2     0.900000E-01   1.00800           0
     19017 MEMB     165      SOPE     C315     CTL2    -0.180000       12.0110           0
     19018 MEMB     165      SOPE     H15X     HAL2     0.900000E-01   1.00800           0
     19019 MEMB     165      SOPE     H15Y     HAL2     0.900000E-01   1.00800           0
     19020 MEMB     165      SOPE     C316     CTL2    -0.180000       12.0110           0
     19021 MEMB     165      SOPE     H16X     HAL2     0.900000E-01   1.00800           0
     19022 MEMB     165      SOPE     H16Y     HAL2     0.900000E-01   1.00800           0
     19023 MEMB     165      SOPE     C317     CTL2    -0.180000       12.0110           0
     19024 MEMB     165      SOPE     H17X     HAL2     0.900000E-01   1.00800           0
     19025 MEMB     165      SOPE     H17Y     HAL2     0.900000E-01   1.00800           0
     19026 MEMB     165      SOPE     C318     CTL3    -0.270000       12.0110           0
     19027 MEMB     165      SOPE     H18X     HAL3     0.900000E-01   1.00800           0
     19028 MEMB     165      SOPE     H18Y     HAL3     0.900000E-01   1.00800           0
     19029 MEMB     165      SOPE     H18Z     HAL3     0.900000E-01   1.00800           0
     19030 MEMB     166      OSM      N        NTL     -0.600000       14.0070           0
     19031 MEMB     166      OSM      C15      CTL5    -0.350000       12.0110           0
     19032 MEMB     166      OSM      H15A     HL       0.250000       1.00800           0
     19033 MEMB     166      OSM      H15B     HL       0.250000       1.00800           0
     19034 MEMB     166      OSM      H15C     HL       0.250000       1.00800           0
     19035 MEMB     166      OSM      C14      CTL5    -0.350000       12.0110           0
     19036 MEMB     166      OSM      H14A     HL       0.250000       1.00800           0
     19037 MEMB     166      OSM      H14B     HL       0.250000       1.00800           0
     19038 MEMB     166      OSM      H14C     HL       0.250000       1.00800           0
     19039 MEMB     166      OSM      C13      CTL5    -0.350000       12.0110           0
     19040 MEMB     166      OSM      H13A     HL       0.250000       1.00800           0
     19041 MEMB     166      OSM      H13B     HL       0.250000       1.00800           0
     19042 MEMB     166      OSM      H13C     HL       0.250000       1.00800           0
     19043 MEMB     166      OSM      C12      CTL2    -0.100000       12.0110           0
     19044 MEMB     166      OSM      H12A     HL       0.250000       1.00800           0
     19045 MEMB     166      OSM      H12B     HL       0.250000       1.00800           0
     19046 MEMB     166      OSM      C11      CTL2    -0.800000E-01   12.0110           0
     19047 MEMB     166      OSM      H11A     HAL2     0.900000E-01   1.00800           0
     19048 MEMB     166      OSM      H11B     HAL2     0.900000E-01   1.00800           0
     19049 MEMB     166      OSM      P        PL        1.50000       30.9740           0
     19050 MEMB     166      OSM      O13      O2L     -0.780000       15.9994           0
     19051 MEMB     166      OSM      O14      O2L     -0.780000       15.9994           0
     19052 MEMB     166      OSM      O11      OSLP    -0.570000       15.9994           0
     19053 MEMB     166      OSM      O12      OSLP    -0.570000       15.9994           0
     19054 MEMB     166      OSM      C1S      CTL2    -0.800000E-01   12.0110           0
     19055 MEMB     166      OSM      H1S      HAL2     0.900000E-01   1.00800           0
     19056 MEMB     166      OSM      H1T      HAL2     0.900000E-01   1.00800           0
     19057 MEMB     166      OSM      NF       NHL     -0.700000       14.0070           0
     19058 MEMB     166      OSM      HNF      H        0.350000       1.00800           0
     19059 MEMB     166      OSM      C2S      CTL1     0.300000       12.0110           0
     19060 MEMB     166      OSM      H2S      HAL1     0.500000E-01   1.00800           0
     19061 MEMB     166      OSM      C3S      CTO1     0.500000       12.0110           0
     19062 MEMB     166      OSM      H3S      HAL1    -0.110000       1.00800           0
     19063 MEMB     166      OSM      O3       OHL     -0.690000       15.9994           0
     19064 MEMB     166      OSM      HO3      HOL      0.300000       1.00800           0
     19065 MEMB     166      OSM      C4S      CEL3    -0.150000       12.0110           0
     19066 MEMB     166      OSM      H4S      HEL1     0.150000       1.00800           0
     19067 MEMB     166      OSM      C5S      CEL3    -0.150000       12.0110           0
     19068 MEMB     166      OSM      H5S      HEL1     0.150000       1.00800           0
     19069 MEMB     166      OSM      C6S      CTL2    -0.180000       12.0110           0
     19070 MEMB     166      OSM      H6S      HAL2     0.900000E-01   1.00800           0
     19071 MEMB     166      OSM      H6T      HAL2     0.900000E-01   1.00800           0
     19072 MEMB     166      OSM      C7S      CTL2    -0.180000       12.0110           0
     19073 MEMB     166      OSM      H7S      HAL2     0.900000E-01   1.00800           0
     19074 MEMB     166      OSM      H7T      HAL2     0.900000E-01   1.00800           0
     19075 MEMB     166      OSM      C8S      CTL2    -0.180000       12.0110           0
     19076 MEMB     166      OSM      H8S      HAL2     0.900000E-01   1.00800           0
     19077 MEMB     166      OSM      H8T      HAL2     0.900000E-01   1.00800           0
     19078 MEMB     166      OSM      C9S      CTL2    -0.180000       12.0110           0
     19079 MEMB     166      OSM      H9S      HAL2     0.900000E-01   1.00800           0
     19080 MEMB     166      OSM      H9T      HAL2     0.900000E-01   1.00800           0
     19081 MEMB     166      OSM      C10S     CTL2    -0.180000       12.0110           0
     19082 MEMB     166      OSM      H10S     HAL2     0.900000E-01   1.00800           0
     19083 MEMB     166      OSM      H10T     HAL2     0.900000E-01   1.00800           0
     19084 MEMB     166      OSM      C11S     CTL2    -0.180000       12.0110           0
     19085 MEMB     166      OSM      H11S     HAL2     0.900000E-01   1.00800           0
     19086 MEMB     166      OSM      H11T     HAL2     0.900000E-01   1.00800           0
     19087 MEMB     166      OSM      C12S     CTL2    -0.180000       12.0110           0
     19088 MEMB     166      OSM      H12S     HAL2     0.900000E-01   1.00800           0
     19089 MEMB     166      OSM      H12T     HAL2     0.900000E-01   1.00800           0
     19090 MEMB     166      OSM      C13S     CTL2    -0.180000       12.0110           0
     19091 MEMB     166      OSM      H13S     HAL2     0.900000E-01   1.00800           0
     19092 MEMB     166      OSM      H13T     HAL2     0.900000E-01   1.00800           0
     19093 MEMB     166      OSM      C14S     CTL2    -0.180000       12.0110           0
     19094 MEMB     166      OSM      H14S     HAL2     0.900000E-01   1.00800           0
     19095 MEMB     166      OSM      H14T     HAL2     0.900000E-01   1.00800           0
     19096 MEMB     166      OSM      C15S     CTL2    -0.180000       12.0110           0
     19097 MEMB     166      OSM      H15S     HAL2     0.900000E-01   1.00800           0
     19098 MEMB     166      OSM      H15T     HAL2     0.900000E-01   1.00800           0
     19099 MEMB     166      OSM      C16S     CTL2    -0.180000       12.0110           0
     19100 MEMB     166      OSM      H16S     HAL2     0.900000E-01   1.00800           0
     19101 MEMB     166      OSM      H16T     HAL2     0.900000E-01   1.00800           0
     19102 MEMB     166      OSM      C17S     CTL2    -0.180000       12.0110           0
     19103 MEMB     166      OSM      H17S     HAL2     0.900000E-01   1.00800           0
     19104 MEMB     166      OSM      H17T     HAL2     0.900000E-01   1.00800           0
     19105 MEMB     166      OSM      C18S     CTL3    -0.270000       12.0110           0
     19106 MEMB     166      OSM      H18S     HAL3     0.900000E-01   1.00800           0
     19107 MEMB     166      OSM      H18T     HAL3     0.900000E-01   1.00800           0
     19108 MEMB     166      OSM      H18U     HAL3     0.900000E-01   1.00800           0
     19109 MEMB     166      OSM      C1F      C        0.550000       12.0110           0
     19110 MEMB     166      OSM      OF       O       -0.600000       15.9994           0
     19111 MEMB     166      OSM      C2F      CTL2    -0.700000E-01   12.0110           0
     19112 MEMB     166      OSM      H2F      HAL2     0.600000E-01   1.00800           0
     19113 MEMB     166      OSM      H2G      HAL2     0.600000E-01   1.00800           0
     19114 MEMB     166      OSM      C3F      CTL2    -0.180000       12.0110           0
     19115 MEMB     166      OSM      H3F      HAL2     0.900000E-01   1.00800           0
     19116 MEMB     166      OSM      H3G      HAL2     0.900000E-01   1.00800           0
     19117 MEMB     166      OSM      C4F      CTL2    -0.180000       12.0110           0
     19118 MEMB     166      OSM      H4F      HAL2     0.900000E-01   1.00800           0
     19119 MEMB     166      OSM      H4G      HAL2     0.900000E-01   1.00800           0
     19120 MEMB     166      OSM      C5F      CTL2    -0.180000       12.0110           0
     19121 MEMB     166      OSM      H5F      HAL2     0.900000E-01   1.00800           0
     19122 MEMB     166      OSM      H5G      HAL2     0.900000E-01   1.00800           0
     19123 MEMB     166      OSM      C6F      CTL2    -0.180000       12.0110           0
     19124 MEMB     166      OSM      H6F      HAL2     0.900000E-01   1.00800           0
     19125 MEMB     166      OSM      H6G      HAL2     0.900000E-01   1.00800           0
     19126 MEMB     166      OSM      C7F      CTL2    -0.180000       12.0110           0
     19127 MEMB     166      OSM      H7F      HAL2     0.900000E-01   1.00800           0
     19128 MEMB     166      OSM      H7G      HAL2     0.900000E-01   1.00800           0
     19129 MEMB     166      OSM      C8F      CTL2    -0.180000       12.0110           0
     19130 MEMB     166      OSM      H8F      HAL2     0.900000E-01   1.00800           0
     19131 MEMB     166      OSM      H8G      HAL2     0.900000E-01   1.00800           0
     19132 MEMB     166      OSM      C9F      CEL1    -0.150000       12.0110           0
     19133 MEMB     166      OSM      H9F      HEL1     0.150000       1.00800           0
     19134 MEMB     166      OSM      C10F     CEL1    -0.150000       12.0110           0
     19135 MEMB     166      OSM      H10F     HEL1     0.150000       1.00800           0
     19136 MEMB     166      OSM      C11F     CTL2    -0.180000       12.0110           0
     19137 MEMB     166      OSM      H11F     HAL2     0.900000E-01   1.00800           0
     19138 MEMB     166      OSM      H11G     HAL2     0.900000E-01   1.00800           0
     19139 MEMB     166      OSM      C12F     CTL2    -0.180000       12.0110           0
     19140 MEMB     166      OSM      H12F     HAL2     0.900000E-01   1.00800           0
     19141 MEMB     166      OSM      H12G     HAL2     0.900000E-01   1.00800           0
     19142 MEMB     166      OSM      C13F     CTL2    -0.180000       12.0110           0
     19143 MEMB     166      OSM      H13F     HAL2     0.900000E-01   1.00800           0
     19144 MEMB     166      OSM      H13G     HAL2     0.900000E-01   1.00800           0
     19145 MEMB     166      OSM      C14F     CTL2    -0.180000       12.0110           0
     19146 MEMB     166      OSM      H14F     HAL2     0.900000E-01   1.00800           0
     19147 MEMB     166      OSM      H14G     HAL2     0.900000E-01   1.00800           0
     19148 MEMB     166      OSM      C15F     CTL2    -0.180000       12.0110           0
     19149 MEMB     166      OSM      H15F     HAL2     0.900000E-01   1.00800           0
     19150 MEMB     166      OSM      H15G     HAL2     0.900000E-01   1.00800           0
     19151 MEMB     166      OSM      C16F     CTL2    -0.180000       12.0110           0
     19152 MEMB     166      OSM      H16F     HAL2     0.900000E-01   1.00800           0
     19153 MEMB     166      OSM      H16G     HAL2     0.900000E-01   1.00800           0
     19154 MEMB     166      OSM      C17F     CTL2    -0.180000       12.0110           0
     19155 MEMB     166      OSM      H17F     HAL2     0.900000E-01   1.00800           0
     19156 MEMB     166      OSM      H17G     HAL2     0.900000E-01   1.00800           0
     19157 MEMB     166      OSM      C18F     CTL3    -0.270000       12.0110           0
     19158 MEMB     166      OSM      H18F     HAL3     0.900000E-01   1.00800           0
     19159 MEMB     166      OSM      H18G     HAL3     0.900000E-01   1.00800           0
     19160 MEMB     166      OSM      H18H     HAL3     0.900000E-01   1.00800           0
     19161 MEMB     167      SAPE     N        NH3L    -0.300000       14.0070           0
     19162 MEMB     167      SAPE     HN1      HCL      0.330000       1.00800           0
     19163 MEMB     167      SAPE     HN2      HCL      0.330000       1.00800           0
     19164 MEMB     167      SAPE     HN3      HCL      0.330000       1.00800           0
     19165 MEMB     167      SAPE     C12      CTL2     0.130000       12.0110           0
     19166 MEMB     167      SAPE     H12A     HAL2     0.900000E-01   1.00800           0
     19167 MEMB     167      SAPE     H12B     HAL2     0.900000E-01   1.00800           0
     19168 MEMB     167      SAPE     C11      CTL2    -0.800000E-01   12.0110           0
     19169 MEMB     167      SAPE     H11A     HAL2     0.900000E-01   1.00800           0
     19170 MEMB     167      SAPE     H11B     HAL2     0.900000E-01   1.00800           0
     19171 MEMB     167      SAPE     P        PL        1.50000       30.9740           0
     19172 MEMB     167      SAPE     O13      O2L     -0.780000       15.9994           0
     19173 MEMB     167      SAPE     O14      O2L     -0.780000       15.9994           0
     19174 MEMB     167      SAPE     O12      OSLP    -0.570000       15.9994           0
     19175 MEMB     167      SAPE     O11      OSLP    -0.570000       15.9994           0
     19176 MEMB     167      SAPE     C1       CTL2    -0.800000E-01   12.0110           0
     19177 MEMB     167      SAPE     HA       HAL2     0.900000E-01   1.00800           0
     19178 MEMB     167      SAPE     HB       HAL2     0.900000E-01   1.00800           0
     19179 MEMB     167      SAPE     C2       CTL1     0.170000       12.0110           0
     19180 MEMB     167      SAPE     HS       HAL1     0.900000E-01   1.00800           0
     19181 MEMB     167      SAPE     O21      OSL     -0.490000       15.9994           0
     19182 MEMB     167      SAPE     C21      CL       0.900000       12.0110           0
     19183 MEMB     167      SAPE     O22      OBL     -0.630000       15.9994           0
     19184 MEMB     167      SAPE     C22      CTL2    -0.220000       12.0110           0
     19185 MEMB     167      SAPE     H2R      HAL2     0.900000E-01   1.00800           0
     19186 MEMB     167      SAPE     H2S      HAL2     0.900000E-01   1.00800           0
     19187 MEMB     167      SAPE     C3       CTL2     0.800000E-01   12.0110           0
     19188 MEMB     167      SAPE     HX       HAL2     0.900000E-01   1.00800           0
     19189 MEMB     167      SAPE     HY       HAL2     0.900000E-01   1.00800           0
     19190 MEMB     167      SAPE     O31      OSL     -0.490000       15.9994           0
     19191 MEMB     167      SAPE     C31      CL       0.900000       12.0110           0
     19192 MEMB     167      SAPE     O32      OBL     -0.630000       15.9994           0
     19193 MEMB     167      SAPE     C32      CTL2    -0.220000       12.0110           0
     19194 MEMB     167      SAPE     H2X      HAL2     0.900000E-01   1.00800           0
     19195 MEMB     167      SAPE     H2Y      HAL2     0.900000E-01   1.00800           0
     19196 MEMB     167      SAPE     C23      CTL2    -0.180000       12.0110           0
     19197 MEMB     167      SAPE     H3R      HAL2     0.900000E-01   1.00800           0
     19198 MEMB     167      SAPE     H3S      HAL2     0.900000E-01   1.00800           0
     19199 MEMB     167      SAPE     C24      CTL2    -0.180000       12.0110           0
     19200 MEMB     167      SAPE     H4R      HAL2     0.900000E-01   1.00800           0
     19201 MEMB     167      SAPE     H4S      HAL2     0.900000E-01   1.00800           0
     19202 MEMB     167      SAPE     C25      CEL1    -0.150000       12.0110           0
     19203 MEMB     167      SAPE     H5R      HEL1     0.150000       1.00800           0
     19204 MEMB     167      SAPE     C26      CEL1    -0.150000       12.0110           0
     19205 MEMB     167      SAPE     H6R      HEL1     0.150000       1.00800           0
     19206 MEMB     167      SAPE     C27      CTL2    -0.180000       12.0110           0
     19207 MEMB     167      SAPE     H7R      HAL2     0.900000E-01   1.00800           0
     19208 MEMB     167      SAPE     H7S      HAL2     0.900000E-01   1.00800           0
     19209 MEMB     167      SAPE     C28      CEL1    -0.150000       12.0110           0
     19210 MEMB     167      SAPE     H8R      HEL1     0.150000       1.00800           0
     19211 MEMB     167      SAPE     C29      CEL1    -0.150000       12.0110           0
     19212 MEMB     167      SAPE     H9R      HEL1     0.150000       1.00800           0
     19213 MEMB     167      SAPE     C210     CTL2    -0.180000       12.0110           0
     19214 MEMB     167      SAPE     H10R     HAL2     0.900000E-01   1.00800           0
     19215 MEMB     167      SAPE     H10S     HAL2     0.900000E-01   1.00800           0
     19216 MEMB     167      SAPE     C211     CEL1    -0.150000       12.0110           0
     19217 MEMB     167      SAPE     H11R     HEL1     0.150000       1.00800           0
     19218 MEMB     167      SAPE     C212     CEL1    -0.150000       12.0110           0
     19219 MEMB     167      SAPE     H12R     HEL1     0.150000       1.00800           0
     19220 MEMB     167      SAPE     C213     CTL2    -0.180000       12.0110           0
     19221 MEMB     167      SAPE     H13R     HAL2     0.900000E-01   1.00800           0
     19222 MEMB     167      SAPE     H13S     HAL2     0.900000E-01   1.00800           0
     19223 MEMB     167      SAPE     C214     CEL1    -0.150000       12.0110           0
     19224 MEMB     167      SAPE     H14R     HEL1     0.150000       1.00800           0
     19225 MEMB     167      SAPE     C215     CEL1    -0.150000       12.0110           0
     19226 MEMB     167      SAPE     H15R     HEL1     0.150000       1.00800           0
     19227 MEMB     167      SAPE     C216     CTL2    -0.180000       12.0110           0
     19228 MEMB     167      SAPE     H16R     HAL2     0.900000E-01   1.00800           0
     19229 MEMB     167      SAPE     H16S     HAL2     0.900000E-01   1.00800           0
     19230 MEMB     167      SAPE     C217     CTL2    -0.180000       12.0110           0
     19231 MEMB     167      SAPE     H17R     HAL2     0.900000E-01   1.00800           0
     19232 MEMB     167      SAPE     H17S     HAL2     0.900000E-01   1.00800           0
     19233 MEMB     167      SAPE     C218     CTL2    -0.180000       12.0110           0
     19234 MEMB     167      SAPE     H18R     HAL2     0.900000E-01   1.00800           0
     19235 MEMB     167      SAPE     H18S     HAL2     0.900000E-01   1.00800           0
     19236 MEMB     167      SAPE     C219     CTL2    -0.180000       12.0110           0
     19237 MEMB     167      SAPE     H19R     HAL2     0.900000E-01   1.00800           0
     19238 MEMB     167      SAPE     H19S     HAL2     0.900000E-01   1.00800           0
     19239 MEMB     167      SAPE     C220     CTL3    -0.270000       12.0110           0
     19240 MEMB     167      SAPE     H20R     HAL3     0.900000E-01   1.00800           0
     19241 MEMB     167      SAPE     H20S     HAL3     0.900000E-01   1.00800           0
     19242 MEMB     167      SAPE     H20T     HAL3     0.900000E-01   1.00800           0
     19243 MEMB     167      SAPE     C33      CTL2    -0.180000       12.0110           0
     19244 MEMB     167      SAPE     H3X      HAL2     0.900000E-01   1.00800           0
     19245 MEMB     167      SAPE     H3Y      HAL2     0.900000E-01   1.00800           0
     19246 MEMB     167      SAPE     C34      CTL2    -0.180000       12.0110           0
     19247 MEMB     167      SAPE     H4X      HAL2     0.900000E-01   1.00800           0
     19248 MEMB     167      SAPE     H4Y      HAL2     0.900000E-01   1.00800           0
     19249 MEMB     167      SAPE     C35      CTL2    -0.180000       12.0110           0
     19250 MEMB     167      SAPE     H5X      HAL2     0.900000E-01   1.00800           0
     19251 MEMB     167      SAPE     H5Y      HAL2     0.900000E-01   1.00800           0
     19252 MEMB     167      SAPE     C36      CTL2    -0.180000       12.0110           0
     19253 MEMB     167      SAPE     H6X      HAL2     0.900000E-01   1.00800           0
     19254 MEMB     167      SAPE     H6Y      HAL2     0.900000E-01   1.00800           0
     19255 MEMB     167      SAPE     C37      CTL2    -0.180000       12.0110           0
     19256 MEMB     167      SAPE     H7X      HAL2     0.900000E-01   1.00800           0
     19257 MEMB     167      SAPE     H7Y      HAL2     0.900000E-01   1.00800           0
     19258 MEMB     167      SAPE     C38      CTL2    -0.180000       12.0110           0
     19259 MEMB     167      SAPE     H8X      HAL2     0.900000E-01   1.00800           0
     19260 MEMB     167      SAPE     H8Y      HAL2     0.900000E-01   1.00800           0
     19261 MEMB     167      SAPE     C39      CTL2    -0.180000       12.0110           0
     19262 MEMB     167      SAPE     H9X      HAL2     0.900000E-01   1.00800           0
     19263 MEMB     167      SAPE     H9Y      HAL2     0.900000E-01   1.00800           0
     19264 MEMB     167      SAPE     C310     CTL2    -0.180000       12.0110           0
     19265 MEMB     167      SAPE     H10X     HAL2     0.900000E-01   1.00800           0
     19266 MEMB     167      SAPE     H10Y     HAL2     0.900000E-01   1.00800           0
     19267 MEMB     167      SAPE     C311     CTL2    -0.180000       12.0110           0
     19268 MEMB     167      SAPE     H11X     HAL2     0.900000E-01   1.00800           0
     19269 MEMB     167      SAPE     H11Y     HAL2     0.900000E-01   1.00800           0
     19270 MEMB     167      SAPE     C312     CTL2    -0.180000       12.0110           0
     19271 MEMB     167      SAPE     H12X     HAL2     0.900000E-01   1.00800           0
     19272 MEMB     167      SAPE     H12Y     HAL2     0.900000E-01   1.00800           0
     19273 MEMB     167      SAPE     C313     CTL2    -0.180000       12.0110           0
     19274 MEMB     167      SAPE     H13X     HAL2     0.900000E-01   1.00800           0
     19275 MEMB     167      SAPE     H13Y     HAL2     0.900000E-01   1.00800           0
     19276 MEMB     167      SAPE     C314     CTL2    -0.180000       12.0110           0
     19277 MEMB     167      SAPE     H14X     HAL2     0.900000E-01   1.00800           0
     19278 MEMB     167      SAPE     H14Y     HAL2     0.900000E-01   1.00800           0
     19279 MEMB     167      SAPE     C315     CTL2    -0.180000       12.0110           0
     19280 MEMB     167      SAPE     H15X     HAL2     0.900000E-01   1.00800           0
     19281 MEMB     167      SAPE     H15Y     HAL2     0.900000E-01   1.00800           0
     19282 MEMB     167      SAPE     C316     CTL2    -0.180000       12.0110           0
     19283 MEMB     167      SAPE     H16X     HAL2     0.900000E-01   1.00800           0
     19284 MEMB     167      SAPE     H16Y     HAL2     0.900000E-01   1.00800           0
     19285 MEMB     167      SAPE     C317     CTL2    -0.180000       12.0110           0
     19286 MEMB     167      SAPE     H17X     HAL2     0.900000E-01   1.00800           0
     19287 MEMB     167      SAPE     H17Y     HAL2     0.900000E-01   1.00800           0
     19288 MEMB     167      SAPE     C318     CTL3    -0.270000       12.0110           0
     19289 MEMB     167      SAPE     H18X     HAL3     0.900000E-01   1.00800           0
     19290 MEMB     167      SAPE     H18Y     HAL3     0.900000E-01   1.00800           0
     19291 MEMB     167      SAPE     H18Z     HAL3     0.900000E-01   1.00800           0
     19292 MEMB     168      SAPS     N        NH3L    -0.300000       14.0070           0
     19293 MEMB     168      SAPS     HN1      HCL      0.330000       1.00800           0
     19294 MEMB     168      SAPS     HN2      HCL      0.330000       1.00800           0
     19295 MEMB     168      SAPS     HN3      HCL      0.330000       1.00800           0
     19296 MEMB     168      SAPS     C12      CTL1     0.210000       12.0110           0
     19297 MEMB     168      SAPS     H12A     HBL      0.100000       1.00800           0
     19298 MEMB     168      SAPS     C13      CCL      0.340000       12.0110           0
     19299 MEMB     168      SAPS     O13A     OCL     -0.670000       15.9994           0
     19300 MEMB     168      SAPS     O13B     OCL     -0.670000       15.9994           0
     19301 MEMB     168      SAPS     C11      CTL2    -0.800000E-01   12.0110           0
     19302 MEMB     168      SAPS     H11A     HAL2     0.900000E-01   1.00800           0
     19303 MEMB     168      SAPS     H11B     HAL2     0.900000E-01   1.00800           0
     19304 MEMB     168      SAPS     P        PL        1.50000       30.9740           0
     19305 MEMB     168      SAPS     O13      O2L     -0.780000       15.9994           0
     19306 MEMB     168      SAPS     O14      O2L     -0.780000       15.9994           0
     19307 MEMB     168      SAPS     O12      OSLP    -0.570000       15.9994           0
     19308 MEMB     168      SAPS     O11      OSLP    -0.570000       15.9994           0
     19309 MEMB     168      SAPS     C1       CTL2    -0.800000E-01   12.0110           0
     19310 MEMB     168      SAPS     HA       HAL2     0.900000E-01   1.00800           0
     19311 MEMB     168      SAPS     HB       HAL2     0.900000E-01   1.00800           0
     19312 MEMB     168      SAPS     C2       CTL1     0.170000       12.0110           0
     19313 MEMB     168      SAPS     HS       HAL1     0.900000E-01   1.00800           0
     19314 MEMB     168      SAPS     O21      OSL     -0.490000       15.9994           0
     19315 MEMB     168      SAPS     C21      CL       0.900000       12.0110           0
     19316 MEMB     168      SAPS     O22      OBL     -0.630000       15.9994           0
     19317 MEMB     168      SAPS     C22      CTL2    -0.220000       12.0110           0
     19318 MEMB     168      SAPS     H2R      HAL2     0.900000E-01   1.00800           0
     19319 MEMB     168      SAPS     H2S      HAL2     0.900000E-01   1.00800           0
     19320 MEMB     168      SAPS     C3       CTL2     0.800000E-01   12.0110           0
     19321 MEMB     168      SAPS     HX       HAL2     0.900000E-01   1.00800           0
     19322 MEMB     168      SAPS     HY       HAL2     0.900000E-01   1.00800           0
     19323 MEMB     168      SAPS     O31      OSL     -0.490000       15.9994           0
     19324 MEMB     168      SAPS     C31      CL       0.900000       12.0110           0
     19325 MEMB     168      SAPS     O32      OBL     -0.630000       15.9994           0
     19326 MEMB     168      SAPS     C32      CTL2    -0.220000       12.0110           0
     19327 MEMB     168      SAPS     H2X      HAL2     0.900000E-01   1.00800           0
     19328 MEMB     168      SAPS     H2Y      HAL2     0.900000E-01   1.00800           0
     19329 MEMB     168      SAPS     C23      CTL2    -0.180000       12.0110           0
     19330 MEMB     168      SAPS     H3R      HAL2     0.900000E-01   1.00800           0
     19331 MEMB     168      SAPS     H3S      HAL2     0.900000E-01   1.00800           0
     19332 MEMB     168      SAPS     C24      CTL2    -0.180000       12.0110           0
     19333 MEMB     168      SAPS     H4R      HAL2     0.900000E-01   1.00800           0
     19334 MEMB     168      SAPS     H4S      HAL2     0.900000E-01   1.00800           0
     19335 MEMB     168      SAPS     C25      CEL1    -0.150000       12.0110           0
     19336 MEMB     168      SAPS     H5R      HEL1     0.150000       1.00800           0
     19337 MEMB     168      SAPS     C26      CEL1    -0.150000       12.0110           0
     19338 MEMB     168      SAPS     H6R      HEL1     0.150000       1.00800           0
     19339 MEMB     168      SAPS     C27      CTL2    -0.180000       12.0110           0
     19340 MEMB     168      SAPS     H7R      HAL2     0.900000E-01   1.00800           0
     19341 MEMB     168      SAPS     H7S      HAL2     0.900000E-01   1.00800           0
     19342 MEMB     168      SAPS     C28      CEL1    -0.150000       12.0110           0
     19343 MEMB     168      SAPS     H8R      HEL1     0.150000       1.00800           0
     19344 MEMB     168      SAPS     C29      CEL1    -0.150000       12.0110           0
     19345 MEMB     168      SAPS     H9R      HEL1     0.150000       1.00800           0
     19346 MEMB     168      SAPS     C210     CTL2    -0.180000       12.0110           0
     19347 MEMB     168      SAPS     H10R     HAL2     0.900000E-01   1.00800           0
     19348 MEMB     168      SAPS     H10S     HAL2     0.900000E-01   1.00800           0
     19349 MEMB     168      SAPS     C211     CEL1    -0.150000       12.0110           0
     19350 MEMB     168      SAPS     H11R     HEL1     0.150000       1.00800           0
     19351 MEMB     168      SAPS     C212     CEL1    -0.150000       12.0110           0
     19352 MEMB     168      SAPS     H12R     HEL1     0.150000       1.00800           0
     19353 MEMB     168      SAPS     C213     CTL2    -0.180000       12.0110           0
     19354 MEMB     168      SAPS     H13R     HAL2     0.900000E-01   1.00800           0
     19355 MEMB     168      SAPS     H13S     HAL2     0.900000E-01   1.00800           0
     19356 MEMB     168      SAPS     C214     CEL1    -0.150000       12.0110           0
     19357 MEMB     168      SAPS     H14R     HEL1     0.150000       1.00800           0
     19358 MEMB     168      SAPS     C215     CEL1    -0.150000       12.0110           0
     19359 MEMB     168      SAPS     H15R     HEL1     0.150000       1.00800           0
     19360 MEMB     168      SAPS     C216     CTL2    -0.180000       12.0110           0
     19361 MEMB     168      SAPS     H16R     HAL2     0.900000E-01   1.00800           0
     19362 MEMB     168      SAPS     H16S     HAL2     0.900000E-01   1.00800           0
     19363 MEMB     168      SAPS     C217     CTL2    -0.180000       12.0110           0
     19364 MEMB     168      SAPS     H17R     HAL2     0.900000E-01   1.00800           0
     19365 MEMB     168      SAPS     H17S     HAL2     0.900000E-01   1.00800           0
     19366 MEMB     168      SAPS     C218     CTL2    -0.180000       12.0110           0
     19367 MEMB     168      SAPS     H18R     HAL2     0.900000E-01   1.00800           0
     19368 MEMB     168      SAPS     H18S     HAL2     0.900000E-01   1.00800           0
     19369 MEMB     168      SAPS     C219     CTL2    -0.180000       12.0110           0
     19370 MEMB     168      SAPS     H19R     HAL2     0.900000E-01   1.00800           0
     19371 MEMB     168      SAPS     H19S     HAL2     0.900000E-01   1.00800           0
     19372 MEMB     168      SAPS     C220     CTL3    -0.270000       12.0110           0
     19373 MEMB     168      SAPS     H20R     HAL3     0.900000E-01   1.00800           0
     19374 MEMB     168      SAPS     H20S     HAL3     0.900000E-01   1.00800           0
     19375 MEMB     168      SAPS     H20T     HAL3     0.900000E-01   1.00800           0
     19376 MEMB     168      SAPS     C33      CTL2    -0.180000       12.0110           0
     19377 MEMB     168      SAPS     H3X      HAL2     0.900000E-01   1.00800           0
     19378 MEMB     168      SAPS     H3Y      HAL2     0.900000E-01   1.00800           0
     19379 MEMB     168      SAPS     C34      CTL2    -0.180000       12.0110           0
     19380 MEMB     168      SAPS     H4X      HAL2     0.900000E-01   1.00800           0
     19381 MEMB     168      SAPS     H4Y      HAL2     0.900000E-01   1.00800           0
     19382 MEMB     168      SAPS     C35      CTL2    -0.180000       12.0110           0
     19383 MEMB     168      SAPS     H5X      HAL2     0.900000E-01   1.00800           0
     19384 MEMB     168      SAPS     H5Y      HAL2     0.900000E-01   1.00800           0
     19385 MEMB     168      SAPS     C36      CTL2    -0.180000       12.0110           0
     19386 MEMB     168      SAPS     H6X      HAL2     0.900000E-01   1.00800           0
     19387 MEMB     168      SAPS     H6Y      HAL2     0.900000E-01   1.00800           0
     19388 MEMB     168      SAPS     C37      CTL2    -0.180000       12.0110           0
     19389 MEMB     168      SAPS     H7X      HAL2     0.900000E-01   1.00800           0
     19390 MEMB     168      SAPS     H7Y      HAL2     0.900000E-01   1.00800           0
     19391 MEMB     168      SAPS     C38      CTL2    -0.180000       12.0110           0
     19392 MEMB     168      SAPS     H8X      HAL2     0.900000E-01   1.00800           0
     19393 MEMB     168      SAPS     H8Y      HAL2     0.900000E-01   1.00800           0
     19394 MEMB     168      SAPS     C39      CTL2    -0.180000       12.0110           0
     19395 MEMB     168      SAPS     H9X      HAL2     0.900000E-01   1.00800           0
     19396 MEMB     168      SAPS     H9Y      HAL2     0.900000E-01   1.00800           0
     19397 MEMB     168      SAPS     C310     CTL2    -0.180000       12.0110           0
     19398 MEMB     168      SAPS     H10X     HAL2     0.900000E-01   1.00800           0
     19399 MEMB     168      SAPS     H10Y     HAL2     0.900000E-01   1.00800           0
     19400 MEMB     168      SAPS     C311     CTL2    -0.180000       12.0110           0
     19401 MEMB     168      SAPS     H11X     HAL2     0.900000E-01   1.00800           0
     19402 MEMB     168      SAPS     H11Y     HAL2     0.900000E-01   1.00800           0
     19403 MEMB     168      SAPS     C312     CTL2    -0.180000       12.0110           0
     19404 MEMB     168      SAPS     H12X     HAL2     0.900000E-01   1.00800           0
     19405 MEMB     168      SAPS     H12Y     HAL2     0.900000E-01   1.00800           0
     19406 MEMB     168      SAPS     C313     CTL2    -0.180000       12.0110           0
     19407 MEMB     168      SAPS     H13X     HAL2     0.900000E-01   1.00800           0
     19408 MEMB     168      SAPS     H13Y     HAL2     0.900000E-01   1.00800           0
     19409 MEMB     168      SAPS     C314     CTL2    -0.180000       12.0110           0
     19410 MEMB     168      SAPS     H14X     HAL2     0.900000E-01   1.00800           0
     19411 MEMB     168      SAPS     H14Y     HAL2     0.900000E-01   1.00800           0
     19412 MEMB     168      SAPS     C315     CTL2    -0.180000       12.0110           0
     19413 MEMB     168      SAPS     H15X     HAL2     0.900000E-01   1.00800           0
     19414 MEMB     168      SAPS     H15Y     HAL2     0.900000E-01   1.00800           0
     19415 MEMB     168      SAPS     C316     CTL2    -0.180000       12.0110           0
     19416 MEMB     168      SAPS     H16X     HAL2     0.900000E-01   1.00800           0
     19417 MEMB     168      SAPS     H16Y     HAL2     0.900000E-01   1.00800           0
     19418 MEMB     168      SAPS     C317     CTL2    -0.180000       12.0110           0
     19419 MEMB     168      SAPS     H17X     HAL2     0.900000E-01   1.00800           0
     19420 MEMB     168      SAPS     H17Y     HAL2     0.900000E-01   1.00800           0
     19421 MEMB     168      SAPS     C318     CTL3    -0.270000       12.0110           0
     19422 MEMB     168      SAPS     H18X     HAL3     0.900000E-01   1.00800           0
     19423 MEMB     168      SAPS     H18Y     HAL3     0.900000E-01   1.00800           0
     19424 MEMB     168      SAPS     H18Z     HAL3     0.900000E-01   1.00800           0
     19425 MEMB     169      SAPE     N        NH3L    -0.300000       14.0070           0
     19426 MEMB     169      SAPE     HN1      HCL      0.330000       1.00800           0
     19427 MEMB     169      SAPE     HN2      HCL      0.330000       1.00800           0
     19428 MEMB     169      SAPE     HN3      HCL      0.330000       1.00800           0
     19429 MEMB     169      SAPE     C12      CTL2     0.130000       12.0110           0
     19430 MEMB     169      SAPE     H12A     HAL2     0.900000E-01   1.00800           0
     19431 MEMB     169      SAPE     H12B     HAL2     0.900000E-01   1.00800           0
     19432 MEMB     169      SAPE     C11      CTL2    -0.800000E-01   12.0110           0
     19433 MEMB     169      SAPE     H11A     HAL2     0.900000E-01   1.00800           0
     19434 MEMB     169      SAPE     H11B     HAL2     0.900000E-01   1.00800           0
     19435 MEMB     169      SAPE     P        PL        1.50000       30.9740           0
     19436 MEMB     169      SAPE     O13      O2L     -0.780000       15.9994           0
     19437 MEMB     169      SAPE     O14      O2L     -0.780000       15.9994           0
     19438 MEMB     169      SAPE     O12      OSLP    -0.570000       15.9994           0
     19439 MEMB     169      SAPE     O11      OSLP    -0.570000       15.9994           0
     19440 MEMB     169      SAPE     C1       CTL2    -0.800000E-01   12.0110           0
     19441 MEMB     169      SAPE     HA       HAL2     0.900000E-01   1.00800           0
     19442 MEMB     169      SAPE     HB       HAL2     0.900000E-01   1.00800           0
     19443 MEMB     169      SAPE     C2       CTL1     0.170000       12.0110           0
     19444 MEMB     169      SAPE     HS       HAL1     0.900000E-01   1.00800           0
     19445 MEMB     169      SAPE     O21      OSL     -0.490000       15.9994           0
     19446 MEMB     169      SAPE     C21      CL       0.900000       12.0110           0
     19447 MEMB     169      SAPE     O22      OBL     -0.630000       15.9994           0
     19448 MEMB     169      SAPE     C22      CTL2    -0.220000       12.0110           0
     19449 MEMB     169      SAPE     H2R      HAL2     0.900000E-01   1.00800           0
     19450 MEMB     169      SAPE     H2S      HAL2     0.900000E-01   1.00800           0
     19451 MEMB     169      SAPE     C3       CTL2     0.800000E-01   12.0110           0
     19452 MEMB     169      SAPE     HX       HAL2     0.900000E-01   1.00800           0
     19453 MEMB     169      SAPE     HY       HAL2     0.900000E-01   1.00800           0
     19454 MEMB     169      SAPE     O31      OSL     -0.490000       15.9994           0
     19455 MEMB     169      SAPE     C31      CL       0.900000       12.0110           0
     19456 MEMB     169      SAPE     O32      OBL     -0.630000       15.9994           0
     19457 MEMB     169      SAPE     C32      CTL2    -0.220000       12.0110           0
     19458 MEMB     169      SAPE     H2X      HAL2     0.900000E-01   1.00800           0
     19459 MEMB     169      SAPE     H2Y      HAL2     0.900000E-01   1.00800           0
     19460 MEMB     169      SAPE     C23      CTL2    -0.180000       12.0110           0
     19461 MEMB     169      SAPE     H3R      HAL2     0.900000E-01   1.00800           0
     19462 MEMB     169      SAPE     H3S      HAL2     0.900000E-01   1.00800           0
     19463 MEMB     169      SAPE     C24      CTL2    -0.180000       12.0110           0
     19464 MEMB     169      SAPE     H4R      HAL2     0.900000E-01   1.00800           0
     19465 MEMB     169      SAPE     H4S      HAL2     0.900000E-01   1.00800           0
     19466 MEMB     169      SAPE     C25      CEL1    -0.150000       12.0110           0
     19467 MEMB     169      SAPE     H5R      HEL1     0.150000       1.00800           0
     19468 MEMB     169      SAPE     C26      CEL1    -0.150000       12.0110           0
     19469 MEMB     169      SAPE     H6R      HEL1     0.150000       1.00800           0
     19470 MEMB     169      SAPE     C27      CTL2    -0.180000       12.0110           0
     19471 MEMB     169      SAPE     H7R      HAL2     0.900000E-01   1.00800           0
     19472 MEMB     169      SAPE     H7S      HAL2     0.900000E-01   1.00800           0
     19473 MEMB     169      SAPE     C28      CEL1    -0.150000       12.0110           0
     19474 MEMB     169      SAPE     H8R      HEL1     0.150000       1.00800           0
     19475 MEMB     169      SAPE     C29      CEL1    -0.150000       12.0110           0
     19476 MEMB     169      SAPE     H9R      HEL1     0.150000       1.00800           0
     19477 MEMB     169      SAPE     C210     CTL2    -0.180000       12.0110           0
     19478 MEMB     169      SAPE     H10R     HAL2     0.900000E-01   1.00800           0
     19479 MEMB     169      SAPE     H10S     HAL2     0.900000E-01   1.00800           0
     19480 MEMB     169      SAPE     C211     CEL1    -0.150000       12.0110           0
     19481 MEMB     169      SAPE     H11R     HEL1     0.150000       1.00800           0
     19482 MEMB     169      SAPE     C212     CEL1    -0.150000       12.0110           0
     19483 MEMB     169      SAPE     H12R     HEL1     0.150000       1.00800           0
     19484 MEMB     169      SAPE     C213     CTL2    -0.180000       12.0110           0
     19485 MEMB     169      SAPE     H13R     HAL2     0.900000E-01   1.00800           0
     19486 MEMB     169      SAPE     H13S     HAL2     0.900000E-01   1.00800           0
     19487 MEMB     169      SAPE     C214     CEL1    -0.150000       12.0110           0
     19488 MEMB     169      SAPE     H14R     HEL1     0.150000       1.00800           0
     19489 MEMB     169      SAPE     C215     CEL1    -0.150000       12.0110           0
     19490 MEMB     169      SAPE     H15R     HEL1     0.150000       1.00800           0
     19491 MEMB     169      SAPE     C216     CTL2    -0.180000       12.0110           0
     19492 MEMB     169      SAPE     H16R     HAL2     0.900000E-01   1.00800           0
     19493 MEMB     169      SAPE     H16S     HAL2     0.900000E-01   1.00800           0
     19494 MEMB     169      SAPE     C217     CTL2    -0.180000       12.0110           0
     19495 MEMB     169      SAPE     H17R     HAL2     0.900000E-01   1.00800           0
     19496 MEMB     169      SAPE     H17S     HAL2     0.900000E-01   1.00800           0
     19497 MEMB     169      SAPE     C218     CTL2    -0.180000       12.0110           0
     19498 MEMB     169      SAPE     H18R     HAL2     0.900000E-01   1.00800           0
     19499 MEMB     169      SAPE     H18S     HAL2     0.900000E-01   1.00800           0
     19500 MEMB     169      SAPE     C219     CTL2    -0.180000       12.0110           0
     19501 MEMB     169      SAPE     H19R     HAL2     0.900000E-01   1.00800           0
     19502 MEMB     169      SAPE     H19S     HAL2     0.900000E-01   1.00800           0
     19503 MEMB     169      SAPE     C220     CTL3    -0.270000       12.0110           0
     19504 MEMB     169      SAPE     H20R     HAL3     0.900000E-01   1.00800           0
     19505 MEMB     169      SAPE     H20S     HAL3     0.900000E-01   1.00800           0
     19506 MEMB     169      SAPE     H20T     HAL3     0.900000E-01   1.00800           0
     19507 MEMB     169      SAPE     C33      CTL2    -0.180000       12.0110           0
     19508 MEMB     169      SAPE     H3X      HAL2     0.900000E-01   1.00800           0
     19509 MEMB     169      SAPE     H3Y      HAL2     0.900000E-01   1.00800           0
     19510 MEMB     169      SAPE     C34      CTL2    -0.180000       12.0110           0
     19511 MEMB     169      SAPE     H4X      HAL2     0.900000E-01   1.00800           0
     19512 MEMB     169      SAPE     H4Y      HAL2     0.900000E-01   1.00800           0
     19513 MEMB     169      SAPE     C35      CTL2    -0.180000       12.0110           0
     19514 MEMB     169      SAPE     H5X      HAL2     0.900000E-01   1.00800           0
     19515 MEMB     169      SAPE     H5Y      HAL2     0.900000E-01   1.00800           0
     19516 MEMB     169      SAPE     C36      CTL2    -0.180000       12.0110           0
     19517 MEMB     169      SAPE     H6X      HAL2     0.900000E-01   1.00800           0
     19518 MEMB     169      SAPE     H6Y      HAL2     0.900000E-01   1.00800           0
     19519 MEMB     169      SAPE     C37      CTL2    -0.180000       12.0110           0
     19520 MEMB     169      SAPE     H7X      HAL2     0.900000E-01   1.00800           0
     19521 MEMB     169      SAPE     H7Y      HAL2     0.900000E-01   1.00800           0
     19522 MEMB     169      SAPE     C38      CTL2    -0.180000       12.0110           0
     19523 MEMB     169      SAPE     H8X      HAL2     0.900000E-01   1.00800           0
     19524 MEMB     169      SAPE     H8Y      HAL2     0.900000E-01   1.00800           0
     19525 MEMB     169      SAPE     C39      CTL2    -0.180000       12.0110           0
     19526 MEMB     169      SAPE     H9X      HAL2     0.900000E-01   1.00800           0
     19527 MEMB     169      SAPE     H9Y      HAL2     0.900000E-01   1.00800           0
     19528 MEMB     169      SAPE     C310     CTL2    -0.180000       12.0110           0
     19529 MEMB     169      SAPE     H10X     HAL2     0.900000E-01   1.00800           0
     19530 MEMB     169      SAPE     H10Y     HAL2     0.900000E-01   1.00800           0
     19531 MEMB     169      SAPE     C311     CTL2    -0.180000       12.0110           0
     19532 MEMB     169      SAPE     H11X     HAL2     0.900000E-01   1.00800           0
     19533 MEMB     169      SAPE     H11Y     HAL2     0.900000E-01   1.00800           0
     19534 MEMB     169      SAPE     C312     CTL2    -0.180000       12.0110           0
     19535 MEMB     169      SAPE     H12X     HAL2     0.900000E-01   1.00800           0
     19536 MEMB     169      SAPE     H12Y     HAL2     0.900000E-01   1.00800           0
     19537 MEMB     169      SAPE     C313     CTL2    -0.180000       12.0110           0
     19538 MEMB     169      SAPE     H13X     HAL2     0.900000E-01   1.00800           0
     19539 MEMB     169      SAPE     H13Y     HAL2     0.900000E-01   1.00800           0
     19540 MEMB     169      SAPE     C314     CTL2    -0.180000       12.0110           0
     19541 MEMB     169      SAPE     H14X     HAL2     0.900000E-01   1.00800           0
     19542 MEMB     169      SAPE     H14Y     HAL2     0.900000E-01   1.00800           0
     19543 MEMB     169      SAPE     C315     CTL2    -0.180000       12.0110           0
     19544 MEMB     169      SAPE     H15X     HAL2     0.900000E-01   1.00800           0
     19545 MEMB     169      SAPE     H15Y     HAL2     0.900000E-01   1.00800           0
     19546 MEMB     169      SAPE     C316     CTL2    -0.180000       12.0110           0
     19547 MEMB     169      SAPE     H16X     HAL2     0.900000E-01   1.00800           0
     19548 MEMB     169      SAPE     H16Y     HAL2     0.900000E-01   1.00800           0
     19549 MEMB     169      SAPE     C317     CTL2    -0.180000       12.0110           0
     19550 MEMB     169      SAPE     H17X     HAL2     0.900000E-01   1.00800           0
     19551 MEMB     169      SAPE     H17Y     HAL2     0.900000E-01   1.00800           0
     19552 MEMB     169      SAPE     C318     CTL3    -0.270000       12.0110           0
     19553 MEMB     169      SAPE     H18X     HAL3     0.900000E-01   1.00800           0
     19554 MEMB     169      SAPE     H18Y     HAL3     0.900000E-01   1.00800           0
     19555 MEMB     169      SAPE     H18Z     HAL3     0.900000E-01   1.00800           0
     19556 MEMB     170      OSM      N        NTL     -0.600000       14.0070           0
     19557 MEMB     170      OSM      C15      CTL5    -0.350000       12.0110           0
     19558 MEMB     170      OSM      H15A     HL       0.250000       1.00800           0
     19559 MEMB     170      OSM      H15B     HL       0.250000       1.00800           0
     19560 MEMB     170      OSM      H15C     HL       0.250000       1.00800           0
     19561 MEMB     170      OSM      C14      CTL5    -0.350000       12.0110           0
     19562 MEMB     170      OSM      H14A     HL       0.250000       1.00800           0
     19563 MEMB     170      OSM      H14B     HL       0.250000       1.00800           0
     19564 MEMB     170      OSM      H14C     HL       0.250000       1.00800           0
     19565 MEMB     170      OSM      C13      CTL5    -0.350000       12.0110           0
     19566 MEMB     170      OSM      H13A     HL       0.250000       1.00800           0
     19567 MEMB     170      OSM      H13B     HL       0.250000       1.00800           0
     19568 MEMB     170      OSM      H13C     HL       0.250000       1.00800           0
     19569 MEMB     170      OSM      C12      CTL2    -0.100000       12.0110           0
     19570 MEMB     170      OSM      H12A     HL       0.250000       1.00800           0
     19571 MEMB     170      OSM      H12B     HL       0.250000       1.00800           0
     19572 MEMB     170      OSM      C11      CTL2    -0.800000E-01   12.0110           0
     19573 MEMB     170      OSM      H11A     HAL2     0.900000E-01   1.00800           0
     19574 MEMB     170      OSM      H11B     HAL2     0.900000E-01   1.00800           0
     19575 MEMB     170      OSM      P        PL        1.50000       30.9740           0
     19576 MEMB     170      OSM      O13      O2L     -0.780000       15.9994           0
     19577 MEMB     170      OSM      O14      O2L     -0.780000       15.9994           0
     19578 MEMB     170      OSM      O11      OSLP    -0.570000       15.9994           0
     19579 MEMB     170      OSM      O12      OSLP    -0.570000       15.9994           0
     19580 MEMB     170      OSM      C1S      CTL2    -0.800000E-01   12.0110           0
     19581 MEMB     170      OSM      H1S      HAL2     0.900000E-01   1.00800           0
     19582 MEMB     170      OSM      H1T      HAL2     0.900000E-01   1.00800           0
     19583 MEMB     170      OSM      NF       NHL     -0.700000       14.0070           0
     19584 MEMB     170      OSM      HNF      H        0.350000       1.00800           0
     19585 MEMB     170      OSM      C2S      CTL1     0.300000       12.0110           0
     19586 MEMB     170      OSM      H2S      HAL1     0.500000E-01   1.00800           0
     19587 MEMB     170      OSM      C3S      CTO1     0.500000       12.0110           0
     19588 MEMB     170      OSM      H3S      HAL1    -0.110000       1.00800           0
     19589 MEMB     170      OSM      O3       OHL     -0.690000       15.9994           0
     19590 MEMB     170      OSM      HO3      HOL      0.300000       1.00800           0
     19591 MEMB     170      OSM      C4S      CEL3    -0.150000       12.0110           0
     19592 MEMB     170      OSM      H4S      HEL1     0.150000       1.00800           0
     19593 MEMB     170      OSM      C5S      CEL3    -0.150000       12.0110           0
     19594 MEMB     170      OSM      H5S      HEL1     0.150000       1.00800           0
     19595 MEMB     170      OSM      C6S      CTL2    -0.180000       12.0110           0
     19596 MEMB     170      OSM      H6S      HAL2     0.900000E-01   1.00800           0
     19597 MEMB     170      OSM      H6T      HAL2     0.900000E-01   1.00800           0
     19598 MEMB     170      OSM      C7S      CTL2    -0.180000       12.0110           0
     19599 MEMB     170      OSM      H7S      HAL2     0.900000E-01   1.00800           0
     19600 MEMB     170      OSM      H7T      HAL2     0.900000E-01   1.00800           0
     19601 MEMB     170      OSM      C8S      CTL2    -0.180000       12.0110           0
     19602 MEMB     170      OSM      H8S      HAL2     0.900000E-01   1.00800           0
     19603 MEMB     170      OSM      H8T      HAL2     0.900000E-01   1.00800           0
     19604 MEMB     170      OSM      C9S      CTL2    -0.180000       12.0110           0
     19605 MEMB     170      OSM      H9S      HAL2     0.900000E-01   1.00800           0
     19606 MEMB     170      OSM      H9T      HAL2     0.900000E-01   1.00800           0
     19607 MEMB     170      OSM      C10S     CTL2    -0.180000       12.0110           0
     19608 MEMB     170      OSM      H10S     HAL2     0.900000E-01   1.00800           0
     19609 MEMB     170      OSM      H10T     HAL2     0.900000E-01   1.00800           0
     19610 MEMB     170      OSM      C11S     CTL2    -0.180000       12.0110           0
     19611 MEMB     170      OSM      H11S     HAL2     0.900000E-01   1.00800           0
     19612 MEMB     170      OSM      H11T     HAL2     0.900000E-01   1.00800           0
     19613 MEMB     170      OSM      C12S     CTL2    -0.180000       12.0110           0
     19614 MEMB     170      OSM      H12S     HAL2     0.900000E-01   1.00800           0
     19615 MEMB     170      OSM      H12T     HAL2     0.900000E-01   1.00800           0
     19616 MEMB     170      OSM      C13S     CTL2    -0.180000       12.0110           0
     19617 MEMB     170      OSM      H13S     HAL2     0.900000E-01   1.00800           0
     19618 MEMB     170      OSM      H13T     HAL2     0.900000E-01   1.00800           0
     19619 MEMB     170      OSM      C14S     CTL2    -0.180000       12.0110           0
     19620 MEMB     170      OSM      H14S     HAL2     0.900000E-01   1.00800           0
     19621 MEMB     170      OSM      H14T     HAL2     0.900000E-01   1.00800           0
     19622 MEMB     170      OSM      C15S     CTL2    -0.180000       12.0110           0
     19623 MEMB     170      OSM      H15S     HAL2     0.900000E-01   1.00800           0
     19624 MEMB     170      OSM      H15T     HAL2     0.900000E-01   1.00800           0
     19625 MEMB     170      OSM      C16S     CTL2    -0.180000       12.0110           0
     19626 MEMB     170      OSM      H16S     HAL2     0.900000E-01   1.00800           0
     19627 MEMB     170      OSM      H16T     HAL2     0.900000E-01   1.00800           0
     19628 MEMB     170      OSM      C17S     CTL2    -0.180000       12.0110           0
     19629 MEMB     170      OSM      H17S     HAL2     0.900000E-01   1.00800           0
     19630 MEMB     170      OSM      H17T     HAL2     0.900000E-01   1.00800           0
     19631 MEMB     170      OSM      C18S     CTL3    -0.270000       12.0110           0
     19632 MEMB     170      OSM      H18S     HAL3     0.900000E-01   1.00800           0
     19633 MEMB     170      OSM      H18T     HAL3     0.900000E-01   1.00800           0
     19634 MEMB     170      OSM      H18U     HAL3     0.900000E-01   1.00800           0
     19635 MEMB     170      OSM      C1F      C        0.550000       12.0110           0
     19636 MEMB     170      OSM      OF       O       -0.600000       15.9994           0
     19637 MEMB     170      OSM      C2F      CTL2    -0.700000E-01   12.0110           0
     19638 MEMB     170      OSM      H2F      HAL2     0.600000E-01   1.00800           0
     19639 MEMB     170      OSM      H2G      HAL2     0.600000E-01   1.00800           0
     19640 MEMB     170      OSM      C3F      CTL2    -0.180000       12.0110           0
     19641 MEMB     170      OSM      H3F      HAL2     0.900000E-01   1.00800           0
     19642 MEMB     170      OSM      H3G      HAL2     0.900000E-01   1.00800           0
     19643 MEMB     170      OSM      C4F      CTL2    -0.180000       12.0110           0
     19644 MEMB     170      OSM      H4F      HAL2     0.900000E-01   1.00800           0
     19645 MEMB     170      OSM      H4G      HAL2     0.900000E-01   1.00800           0
     19646 MEMB     170      OSM      C5F      CTL2    -0.180000       12.0110           0
     19647 MEMB     170      OSM      H5F      HAL2     0.900000E-01   1.00800           0
     19648 MEMB     170      OSM      H5G      HAL2     0.900000E-01   1.00800           0
     19649 MEMB     170      OSM      C6F      CTL2    -0.180000       12.0110           0
     19650 MEMB     170      OSM      H6F      HAL2     0.900000E-01   1.00800           0
     19651 MEMB     170      OSM      H6G      HAL2     0.900000E-01   1.00800           0
     19652 MEMB     170      OSM      C7F      CTL2    -0.180000       12.0110           0
     19653 MEMB     170      OSM      H7F      HAL2     0.900000E-01   1.00800           0
     19654 MEMB     170      OSM      H7G      HAL2     0.900000E-01   1.00800           0
     19655 MEMB     170      OSM      C8F      CTL2    -0.180000       12.0110           0
     19656 MEMB     170      OSM      H8F      HAL2     0.900000E-01   1.00800           0
     19657 MEMB     170      OSM      H8G      HAL2     0.900000E-01   1.00800           0
     19658 MEMB     170      OSM      C9F      CEL1    -0.150000       12.0110           0
     19659 MEMB     170      OSM      H9F      HEL1     0.150000       1.00800           0
     19660 MEMB     170      OSM      C10F     CEL1    -0.150000       12.0110           0
     19661 MEMB     170      OSM      H10F     HEL1     0.150000       1.00800           0
     19662 MEMB     170      OSM      C11F     CTL2    -0.180000       12.0110           0
     19663 MEMB     170      OSM      H11F     HAL2     0.900000E-01   1.00800           0
     19664 MEMB     170      OSM      H11G     HAL2     0.900000E-01   1.00800           0
     19665 MEMB     170      OSM      C12F     CTL2    -0.180000       12.0110           0
     19666 MEMB     170      OSM      H12F     HAL2     0.900000E-01   1.00800           0
     19667 MEMB     170      OSM      H12G     HAL2     0.900000E-01   1.00800           0
     19668 MEMB     170      OSM      C13F     CTL2    -0.180000       12.0110           0
     19669 MEMB     170      OSM      H13F     HAL2     0.900000E-01   1.00800           0
     19670 MEMB     170      OSM      H13G     HAL2     0.900000E-01   1.00800           0
     19671 MEMB     170      OSM      C14F     CTL2    -0.180000       12.0110           0
     19672 MEMB     170      OSM      H14F     HAL2     0.900000E-01   1.00800           0
     19673 MEMB     170      OSM      H14G     HAL2     0.900000E-01   1.00800           0
     19674 MEMB     170      OSM      C15F     CTL2    -0.180000       12.0110           0
     19675 MEMB     170      OSM      H15F     HAL2     0.900000E-01   1.00800           0
     19676 MEMB     170      OSM      H15G     HAL2     0.900000E-01   1.00800           0
     19677 MEMB     170      OSM      C16F     CTL2    -0.180000       12.0110           0
     19678 MEMB     170      OSM      H16F     HAL2     0.900000E-01   1.00800           0
     19679 MEMB     170      OSM      H16G     HAL2     0.900000E-01   1.00800           0
     19680 MEMB     170      OSM      C17F     CTL2    -0.180000       12.0110           0
     19681 MEMB     170      OSM      H17F     HAL2     0.900000E-01   1.00800           0
     19682 MEMB     170      OSM      H17G     HAL2     0.900000E-01   1.00800           0
     19683 MEMB     170      OSM      C18F     CTL3    -0.270000       12.0110           0
     19684 MEMB     170      OSM      H18F     HAL3     0.900000E-01   1.00800           0
     19685 MEMB     170      OSM      H18G     HAL3     0.900000E-01   1.00800           0
     19686 MEMB     170      OSM      H18H     HAL3     0.900000E-01   1.00800           0
     19687 MEMB     171      SLPC     N        NTL     -0.600000       14.0070           0
     19688 MEMB     171      SLPC     C13      CTL5    -0.350000       12.0110           0
     19689 MEMB     171      SLPC     H13A     HL       0.250000       1.00800           0
     19690 MEMB     171      SLPC     H13B     HL       0.250000       1.00800           0
     19691 MEMB     171      SLPC     H13C     HL       0.250000       1.00800           0
     19692 MEMB     171      SLPC     C14      CTL5    -0.350000       12.0110           0
     19693 MEMB     171      SLPC     H14A     HL       0.250000       1.00800           0
     19694 MEMB     171      SLPC     H14B     HL       0.250000       1.00800           0
     19695 MEMB     171      SLPC     H14C     HL       0.250000       1.00800           0
     19696 MEMB     171      SLPC     C15      CTL5    -0.350000       12.0110           0
     19697 MEMB     171      SLPC     H15A     HL       0.250000       1.00800           0
     19698 MEMB     171      SLPC     H15B     HL       0.250000       1.00800           0
     19699 MEMB     171      SLPC     H15C     HL       0.250000       1.00800           0
     19700 MEMB     171      SLPC     C12      CTL2    -0.100000       12.0110           0
     19701 MEMB     171      SLPC     H12A     HL       0.250000       1.00800           0
     19702 MEMB     171      SLPC     H12B     HL       0.250000       1.00800           0
     19703 MEMB     171      SLPC     C11      CTL2    -0.800000E-01   12.0110           0
     19704 MEMB     171      SLPC     H11A     HAL2     0.900000E-01   1.00800           0
     19705 MEMB     171      SLPC     H11B     HAL2     0.900000E-01   1.00800           0
     19706 MEMB     171      SLPC     P        PL        1.50000       30.9740           0
     19707 MEMB     171      SLPC     O13      O2L     -0.780000       15.9994           0
     19708 MEMB     171      SLPC     O14      O2L     -0.780000       15.9994           0
     19709 MEMB     171      SLPC     O12      OSLP    -0.570000       15.9994           0
     19710 MEMB     171      SLPC     O11      OSLP    -0.570000       15.9994           0
     19711 MEMB     171      SLPC     C1       CTL2    -0.800000E-01   12.0110           0
     19712 MEMB     171      SLPC     HA       HAL2     0.900000E-01   1.00800           0
     19713 MEMB     171      SLPC     HB       HAL2     0.900000E-01   1.00800           0
     19714 MEMB     171      SLPC     C2       CTL1     0.170000       12.0110           0
     19715 MEMB     171      SLPC     HS       HAL1     0.900000E-01   1.00800           0
     19716 MEMB     171      SLPC     O21      OSL     -0.490000       15.9994           0
     19717 MEMB     171      SLPC     C21      CL       0.900000       12.0110           0
     19718 MEMB     171      SLPC     O22      OBL     -0.630000       15.9994           0
     19719 MEMB     171      SLPC     C22      CTL2    -0.220000       12.0110           0
     19720 MEMB     171      SLPC     H2R      HAL2     0.900000E-01   1.00800           0
     19721 MEMB     171      SLPC     H2S      HAL2     0.900000E-01   1.00800           0
     19722 MEMB     171      SLPC     C3       CTL2     0.800000E-01   12.0110           0
     19723 MEMB     171      SLPC     HX       HAL2     0.900000E-01   1.00800           0
     19724 MEMB     171      SLPC     HY       HAL2     0.900000E-01   1.00800           0
     19725 MEMB     171      SLPC     O31      OSL     -0.490000       15.9994           0
     19726 MEMB     171      SLPC     C31      CL       0.900000       12.0110           0
     19727 MEMB     171      SLPC     O32      OBL     -0.630000       15.9994           0
     19728 MEMB     171      SLPC     C32      CTL2    -0.220000       12.0110           0
     19729 MEMB     171      SLPC     H2X      HAL2     0.900000E-01   1.00800           0
     19730 MEMB     171      SLPC     H2Y      HAL2     0.900000E-01   1.00800           0
     19731 MEMB     171      SLPC     C23      CTL2    -0.180000       12.0110           0
     19732 MEMB     171      SLPC     H3R      HAL2     0.900000E-01   1.00800           0
     19733 MEMB     171      SLPC     H3S      HAL2     0.900000E-01   1.00800           0
     19734 MEMB     171      SLPC     C24      CTL2    -0.180000       12.0110           0
     19735 MEMB     171      SLPC     H4R      HAL2     0.900000E-01   1.00800           0
     19736 MEMB     171      SLPC     H4S      HAL2     0.900000E-01   1.00800           0
     19737 MEMB     171      SLPC     C25      CTL2    -0.180000       12.0110           0
     19738 MEMB     171      SLPC     H5R      HAL2     0.900000E-01   1.00800           0
     19739 MEMB     171      SLPC     H5S      HAL2     0.900000E-01   1.00800           0
     19740 MEMB     171      SLPC     C26      CTL2    -0.180000       12.0110           0
     19741 MEMB     171      SLPC     H6R      HAL2     0.900000E-01   1.00800           0
     19742 MEMB     171      SLPC     H6S      HAL2     0.900000E-01   1.00800           0
     19743 MEMB     171      SLPC     C27      CTL2    -0.180000       12.0110           0
     19744 MEMB     171      SLPC     H7R      HAL2     0.900000E-01   1.00800           0
     19745 MEMB     171      SLPC     H7S      HAL2     0.900000E-01   1.00800           0
     19746 MEMB     171      SLPC     C28      CTL2    -0.180000       12.0110           0
     19747 MEMB     171      SLPC     H8R      HAL2     0.900000E-01   1.00800           0
     19748 MEMB     171      SLPC     H8S      HAL2     0.900000E-01   1.00800           0
     19749 MEMB     171      SLPC     C29      CEL1    -0.150000       12.0110           0
     19750 MEMB     171      SLPC     H9R      HEL1     0.150000       1.00800           0
     19751 MEMB     171      SLPC     C210     CEL1    -0.150000       12.0110           0
     19752 MEMB     171      SLPC     H10R     HEL1     0.150000       1.00800           0
     19753 MEMB     171      SLPC     C211     CTL2    -0.180000       12.0110           0
     19754 MEMB     171      SLPC     H11R     HAL2     0.900000E-01   1.00800           0
     19755 MEMB     171      SLPC     H11S     HAL2     0.900000E-01   1.00800           0
     19756 MEMB     171      SLPC     C212     CEL1    -0.150000       12.0110           0
     19757 MEMB     171      SLPC     H12R     HEL1     0.150000       1.00800           0
     19758 MEMB     171      SLPC     C213     CEL1    -0.150000       12.0110           0
     19759 MEMB     171      SLPC     H13R     HEL1     0.150000       1.00800           0
     19760 MEMB     171      SLPC     C214     CTL2    -0.180000       12.0110           0
     19761 MEMB     171      SLPC     H14R     HAL2     0.900000E-01   1.00800           0
     19762 MEMB     171      SLPC     H14S     HAL2     0.900000E-01   1.00800           0
     19763 MEMB     171      SLPC     C215     CTL2    -0.180000       12.0110           0
     19764 MEMB     171      SLPC     H15R     HAL2     0.900000E-01   1.00800           0
     19765 MEMB     171      SLPC     H15S     HAL2     0.900000E-01   1.00800           0
     19766 MEMB     171      SLPC     C216     CTL2    -0.180000       12.0110           0
     19767 MEMB     171      SLPC     H16R     HAL2     0.900000E-01   1.00800           0
     19768 MEMB     171      SLPC     H16S     HAL2     0.900000E-01   1.00800           0
     19769 MEMB     171      SLPC     C217     CTL2    -0.180000       12.0110           0
     19770 MEMB     171      SLPC     H17R     HAL2     0.900000E-01   1.00800           0
     19771 MEMB     171      SLPC     H17S     HAL2     0.900000E-01   1.00800           0
     19772 MEMB     171      SLPC     C218     CTL3    -0.270000       12.0110           0
     19773 MEMB     171      SLPC     H18R     HAL3     0.900000E-01   1.00800           0
     19774 MEMB     171      SLPC     H18S     HAL3     0.900000E-01   1.00800           0
     19775 MEMB     171      SLPC     H18T     HAL3     0.900000E-01   1.00800           0
     19776 MEMB     171      SLPC     C33      CTL2    -0.180000       12.0110           0
     19777 MEMB     171      SLPC     H3X      HAL2     0.900000E-01   1.00800           0
     19778 MEMB     171      SLPC     H3Y      HAL2     0.900000E-01   1.00800           0
     19779 MEMB     171      SLPC     C34      CTL2    -0.180000       12.0110           0
     19780 MEMB     171      SLPC     H4X      HAL2     0.900000E-01   1.00800           0
     19781 MEMB     171      SLPC     H4Y      HAL2     0.900000E-01   1.00800           0
     19782 MEMB     171      SLPC     C35      CTL2    -0.180000       12.0110           0
     19783 MEMB     171      SLPC     H5X      HAL2     0.900000E-01   1.00800           0
     19784 MEMB     171      SLPC     H5Y      HAL2     0.900000E-01   1.00800           0
     19785 MEMB     171      SLPC     C36      CTL2    -0.180000       12.0110           0
     19786 MEMB     171      SLPC     H6X      HAL2     0.900000E-01   1.00800           0
     19787 MEMB     171      SLPC     H6Y      HAL2     0.900000E-01   1.00800           0
     19788 MEMB     171      SLPC     C37      CTL2    -0.180000       12.0110           0
     19789 MEMB     171      SLPC     H7X      HAL2     0.900000E-01   1.00800           0
     19790 MEMB     171      SLPC     H7Y      HAL2     0.900000E-01   1.00800           0
     19791 MEMB     171      SLPC     C38      CTL2    -0.180000       12.0110           0
     19792 MEMB     171      SLPC     H8X      HAL2     0.900000E-01   1.00800           0
     19793 MEMB     171      SLPC     H8Y      HAL2     0.900000E-01   1.00800           0
     19794 MEMB     171      SLPC     C39      CTL2    -0.180000       12.0110           0
     19795 MEMB     171      SLPC     H9X      HAL2     0.900000E-01   1.00800           0
     19796 MEMB     171      SLPC     H9Y      HAL2     0.900000E-01   1.00800           0
     19797 MEMB     171      SLPC     C310     CTL2    -0.180000       12.0110           0
     19798 MEMB     171      SLPC     H10X     HAL2     0.900000E-01   1.00800           0
     19799 MEMB     171      SLPC     H10Y     HAL2     0.900000E-01   1.00800           0
     19800 MEMB     171      SLPC     C311     CTL2    -0.180000       12.0110           0
     19801 MEMB     171      SLPC     H11X     HAL2     0.900000E-01   1.00800           0
     19802 MEMB     171      SLPC     H11Y     HAL2     0.900000E-01   1.00800           0
     19803 MEMB     171      SLPC     C312     CTL2    -0.180000       12.0110           0
     19804 MEMB     171      SLPC     H12X     HAL2     0.900000E-01   1.00800           0
     19805 MEMB     171      SLPC     H12Y     HAL2     0.900000E-01   1.00800           0
     19806 MEMB     171      SLPC     C313     CTL2    -0.180000       12.0110           0
     19807 MEMB     171      SLPC     H13X     HAL2     0.900000E-01   1.00800           0
     19808 MEMB     171      SLPC     H13Y     HAL2     0.900000E-01   1.00800           0
     19809 MEMB     171      SLPC     C314     CTL2    -0.180000       12.0110           0
     19810 MEMB     171      SLPC     H14X     HAL2     0.900000E-01   1.00800           0
     19811 MEMB     171      SLPC     H14Y     HAL2     0.900000E-01   1.00800           0
     19812 MEMB     171      SLPC     C315     CTL2    -0.180000       12.0110           0
     19813 MEMB     171      SLPC     H15X     HAL2     0.900000E-01   1.00800           0
     19814 MEMB     171      SLPC     H15Y     HAL2     0.900000E-01   1.00800           0
     19815 MEMB     171      SLPC     C316     CTL2    -0.180000       12.0110           0
     19816 MEMB     171      SLPC     H16X     HAL2     0.900000E-01   1.00800           0
     19817 MEMB     171      SLPC     H16Y     HAL2     0.900000E-01   1.00800           0
     19818 MEMB     171      SLPC     C317     CTL2    -0.180000       12.0110           0
     19819 MEMB     171      SLPC     H17X     HAL2     0.900000E-01   1.00800           0
     19820 MEMB     171      SLPC     H17Y     HAL2     0.900000E-01   1.00800           0
     19821 MEMB     171      SLPC     C318     CTL3    -0.270000       12.0110           0
     19822 MEMB     171      SLPC     H18X     HAL3     0.900000E-01   1.00800           0
     19823 MEMB     171      SLPC     H18Y     HAL3     0.900000E-01   1.00800           0
     19824 MEMB     171      SLPC     H18Z     HAL3     0.900000E-01   1.00800           0
     19825 MEMB     172      CHL1     C3       CRL1     0.140000       12.0110           0
     19826 MEMB     172      CHL1     H3       HGA1     0.900000E-01   1.00800           0
     19827 MEMB     172      CHL1     O3       OHL     -0.660000       15.9994           0
     19828 MEMB     172      CHL1     H3'      HOL      0.430000       1.00800           0
     19829 MEMB     172      CHL1     C4       CRL2    -0.180000       12.0110           0
     19830 MEMB     172      CHL1     H4A      HGA2     0.900000E-01   1.00800           0
     19831 MEMB     172      CHL1     H4B      HGA2     0.900000E-01   1.00800           0
     19832 MEMB     172      CHL1     C5       CEL1      0.00000       12.0110           0
     19833 MEMB     172      CHL1     C6       CEL1    -0.150000       12.0110           0
     19834 MEMB     172      CHL1     H6       HEL1     0.150000       1.00800           0
     19835 MEMB     172      CHL1     C7       CRL2    -0.180000       12.0110           0
     19836 MEMB     172      CHL1     H7A      HGA2     0.900000E-01   1.00800           0
     19837 MEMB     172      CHL1     H7B      HGA2     0.900000E-01   1.00800           0
     19838 MEMB     172      CHL1     C8       CRL1    -0.900000E-01   12.0110           0
     19839 MEMB     172      CHL1     H8       HGA1     0.900000E-01   1.00800           0
     19840 MEMB     172      CHL1     C14      CRL1    -0.900000E-01   12.0110           0
     19841 MEMB     172      CHL1     H14      HGA1     0.900000E-01   1.00800           0
     19842 MEMB     172      CHL1     C15      CRL2    -0.180000       12.0110           0
     19843 MEMB     172      CHL1     H15A     HGA2     0.900000E-01   1.00800           0
     19844 MEMB     172      CHL1     H15B     HGA2     0.900000E-01   1.00800           0
     19845 MEMB     172      CHL1     C16      CRL2    -0.180000       12.0110           0
     19846 MEMB     172      CHL1     H16A     HGA2     0.900000E-01   1.00800           0
     19847 MEMB     172      CHL1     H16B     HGA2     0.900000E-01   1.00800           0
     19848 MEMB     172      CHL1     C17      CRL1    -0.900000E-01   12.0110           0
     19849 MEMB     172      CHL1     H17      HGA1     0.900000E-01   1.00800           0
     19850 MEMB     172      CHL1     C13      CRL1      0.00000       12.0110           0
     19851 MEMB     172      CHL1     C18      CTL3    -0.270000       12.0110           0
     19852 MEMB     172      CHL1     H18A     HAL3     0.900000E-01   1.00800           0
     19853 MEMB     172      CHL1     H18B     HAL3     0.900000E-01   1.00800           0
     19854 MEMB     172      CHL1     H18C     HAL3     0.900000E-01   1.00800           0
     19855 MEMB     172      CHL1     C12      CRL2    -0.180000       12.0110           0
     19856 MEMB     172      CHL1     H12A     HGA2     0.900000E-01   1.00800           0
     19857 MEMB     172      CHL1     H12B     HGA2     0.900000E-01   1.00800           0
     19858 MEMB     172      CHL1     C11      CRL2    -0.180000       12.0110           0
     19859 MEMB     172      CHL1     H11A     HGA2     0.900000E-01   1.00800           0
     19860 MEMB     172      CHL1     H11B     HGA2     0.900000E-01   1.00800           0
     19861 MEMB     172      CHL1     C9       CRL1    -0.900000E-01   12.0110           0
     19862 MEMB     172      CHL1     H9       HGA1     0.900000E-01   1.00800           0
     19863 MEMB     172      CHL1     C10      CRL1      0.00000       12.0110           0
     19864 MEMB     172      CHL1     C19      CTL3    -0.270000       12.0110           0
     19865 MEMB     172      CHL1     H19A     HAL3     0.900000E-01   1.00800           0
     19866 MEMB     172      CHL1     H19B     HAL3     0.900000E-01   1.00800           0
     19867 MEMB     172      CHL1     H19C     HAL3     0.900000E-01   1.00800           0
     19868 MEMB     172      CHL1     C1       CRL2    -0.180000       12.0110           0
     19869 MEMB     172      CHL1     H1A      HGA2     0.900000E-01   1.00800           0
     19870 MEMB     172      CHL1     H1B      HGA2     0.900000E-01   1.00800           0
     19871 MEMB     172      CHL1     C2       CRL2    -0.180000       12.0110           0
     19872 MEMB     172      CHL1     H2A      HGA2     0.900000E-01   1.00800           0
     19873 MEMB     172      CHL1     H2B      HGA2     0.900000E-01   1.00800           0
     19874 MEMB     172      CHL1     C20      CTL1    -0.900000E-01   12.0110           0
     19875 MEMB     172      CHL1     H20      HAL1     0.900000E-01   1.00800           0
     19876 MEMB     172      CHL1     C21      CTL3    -0.270000       12.0110           0
     19877 MEMB     172      CHL1     H21A     HAL3     0.900000E-01   1.00800           0
     19878 MEMB     172      CHL1     H21B     HAL3     0.900000E-01   1.00800           0
     19879 MEMB     172      CHL1     H21C     HAL3     0.900000E-01   1.00800           0
     19880 MEMB     172      CHL1     C22      CTL2    -0.180000       12.0110           0
     19881 MEMB     172      CHL1     H22A     HAL2     0.900000E-01   1.00800           0
     19882 MEMB     172      CHL1     H22B     HAL2     0.900000E-01   1.00800           0
     19883 MEMB     172      CHL1     C23      CTL2    -0.180000       12.0110           0
     19884 MEMB     172      CHL1     H23A     HAL2     0.900000E-01   1.00800           0
     19885 MEMB     172      CHL1     H23B     HAL2     0.900000E-01   1.00800           0
     19886 MEMB     172      CHL1     C24      CTL2    -0.180000       12.0110           0
     19887 MEMB     172      CHL1     H24A     HAL2     0.900000E-01   1.00800           0
     19888 MEMB     172      CHL1     H24B     HAL2     0.900000E-01   1.00800           0
     19889 MEMB     172      CHL1     C25      CTL1    -0.900000E-01   12.0110           0
     19890 MEMB     172      CHL1     H25      HAL1     0.900000E-01   1.00800           0
     19891 MEMB     172      CHL1     C26      CTL3    -0.270000       12.0110           0
     19892 MEMB     172      CHL1     H26A     HAL3     0.900000E-01   1.00800           0
     19893 MEMB     172      CHL1     H26B     HAL3     0.900000E-01   1.00800           0
     19894 MEMB     172      CHL1     H26C     HAL3     0.900000E-01   1.00800           0
     19895 MEMB     172      CHL1     C27      CTL3    -0.270000       12.0110           0
     19896 MEMB     172      CHL1     H27A     HAL3     0.900000E-01   1.00800           0
     19897 MEMB     172      CHL1     H27B     HAL3     0.900000E-01   1.00800           0
     19898 MEMB     172      CHL1     H27C     HAL3     0.900000E-01   1.00800           0
     19899 MEMB     173      POPC     N        NTL     -0.600000       14.0070           0
     19900 MEMB     173      POPC     C12      CTL2    -0.100000       12.0110           0
     19901 MEMB     173      POPC     H12A     HL       0.250000       1.00800           0
     19902 MEMB     173      POPC     H12B     HL       0.250000       1.00800           0
     19903 MEMB     173      POPC     C13      CTL5    -0.350000       12.0110           0
     19904 MEMB     173      POPC     H13A     HL       0.250000       1.00800           0
     19905 MEMB     173      POPC     H13B     HL       0.250000       1.00800           0
     19906 MEMB     173      POPC     H13C     HL       0.250000       1.00800           0
     19907 MEMB     173      POPC     C14      CTL5    -0.350000       12.0110           0
     19908 MEMB     173      POPC     H14A     HL       0.250000       1.00800           0
     19909 MEMB     173      POPC     H14B     HL       0.250000       1.00800           0
     19910 MEMB     173      POPC     H14C     HL       0.250000       1.00800           0
     19911 MEMB     173      POPC     C15      CTL5    -0.350000       12.0110           0
     19912 MEMB     173      POPC     H15A     HL       0.250000       1.00800           0
     19913 MEMB     173      POPC     H15B     HL       0.250000       1.00800           0
     19914 MEMB     173      POPC     H15C     HL       0.250000       1.00800           0
     19915 MEMB     173      POPC     C11      CTL2    -0.800000E-01   12.0110           0
     19916 MEMB     173      POPC     H11A     HAL2     0.900000E-01   1.00800           0
     19917 MEMB     173      POPC     H11B     HAL2     0.900000E-01   1.00800           0
     19918 MEMB     173      POPC     P        PL        1.50000       30.9740           0
     19919 MEMB     173      POPC     O13      O2L     -0.780000       15.9994           0
     19920 MEMB     173      POPC     O14      O2L     -0.780000       15.9994           0
     19921 MEMB     173      POPC     O12      OSLP    -0.570000       15.9994           0
     19922 MEMB     173      POPC     O11      OSLP    -0.570000       15.9994           0
     19923 MEMB     173      POPC     C1       CTL2    -0.800000E-01   12.0110           0
     19924 MEMB     173      POPC     HA       HAL2     0.900000E-01   1.00800           0
     19925 MEMB     173      POPC     HB       HAL2     0.900000E-01   1.00800           0
     19926 MEMB     173      POPC     C2       CTL1     0.170000       12.0110           0
     19927 MEMB     173      POPC     HS       HAL1     0.900000E-01   1.00800           0
     19928 MEMB     173      POPC     O21      OSL     -0.490000       15.9994           0
     19929 MEMB     173      POPC     C21      CL       0.900000       12.0110           0
     19930 MEMB     173      POPC     O22      OBL     -0.630000       15.9994           0
     19931 MEMB     173      POPC     C22      CTL2    -0.220000       12.0110           0
     19932 MEMB     173      POPC     H2R      HAL2     0.900000E-01   1.00800           0
     19933 MEMB     173      POPC     H2S      HAL2     0.900000E-01   1.00800           0
     19934 MEMB     173      POPC     C3       CTL2     0.800000E-01   12.0110           0
     19935 MEMB     173      POPC     HX       HAL2     0.900000E-01   1.00800           0
     19936 MEMB     173      POPC     HY       HAL2     0.900000E-01   1.00800           0
     19937 MEMB     173      POPC     O31      OSL     -0.490000       15.9994           0
     19938 MEMB     173      POPC     C31      CL       0.900000       12.0110           0
     19939 MEMB     173      POPC     O32      OBL     -0.630000       15.9994           0
     19940 MEMB     173      POPC     C32      CTL2    -0.220000       12.0110           0
     19941 MEMB     173      POPC     H2X      HAL2     0.900000E-01   1.00800           0
     19942 MEMB     173      POPC     H2Y      HAL2     0.900000E-01   1.00800           0
     19943 MEMB     173      POPC     C23      CTL2    -0.180000       12.0110           0
     19944 MEMB     173      POPC     H3R      HAL2     0.900000E-01   1.00800           0
     19945 MEMB     173      POPC     H3S      HAL2     0.900000E-01   1.00800           0
     19946 MEMB     173      POPC     C24      CTL2    -0.180000       12.0110           0
     19947 MEMB     173      POPC     H4R      HAL2     0.900000E-01   1.00800           0
     19948 MEMB     173      POPC     H4S      HAL2     0.900000E-01   1.00800           0
     19949 MEMB     173      POPC     C25      CTL2    -0.180000       12.0110           0
     19950 MEMB     173      POPC     H5R      HAL2     0.900000E-01   1.00800           0
     19951 MEMB     173      POPC     H5S      HAL2     0.900000E-01   1.00800           0
     19952 MEMB     173      POPC     C26      CTL2    -0.180000       12.0110           0
     19953 MEMB     173      POPC     H6R      HAL2     0.900000E-01   1.00800           0
     19954 MEMB     173      POPC     H6S      HAL2     0.900000E-01   1.00800           0
     19955 MEMB     173      POPC     C27      CTL2    -0.180000       12.0110           0
     19956 MEMB     173      POPC     H7R      HAL2     0.900000E-01   1.00800           0
     19957 MEMB     173      POPC     H7S      HAL2     0.900000E-01   1.00800           0
     19958 MEMB     173      POPC     C28      CTL2    -0.180000       12.0110           0
     19959 MEMB     173      POPC     H8R      HAL2     0.900000E-01   1.00800           0
     19960 MEMB     173      POPC     H8S      HAL2     0.900000E-01   1.00800           0
     19961 MEMB     173      POPC     C29      CEL1    -0.150000       12.0110           0
     19962 MEMB     173      POPC     H91      HEL1     0.150000       1.00800           0
     19963 MEMB     173      POPC     C210     CEL1    -0.150000       12.0110           0
     19964 MEMB     173      POPC     H101     HEL1     0.150000       1.00800           0
     19965 MEMB     173      POPC     C211     CTL2    -0.180000       12.0110           0
     19966 MEMB     173      POPC     H11R     HAL2     0.900000E-01   1.00800           0
     19967 MEMB     173      POPC     H11S     HAL2     0.900000E-01   1.00800           0
     19968 MEMB     173      POPC     C212     CTL2    -0.180000       12.0110           0
     19969 MEMB     173      POPC     H12R     HAL2     0.900000E-01   1.00800           0
     19970 MEMB     173      POPC     H12S     HAL2     0.900000E-01   1.00800           0
     19971 MEMB     173      POPC     C213     CTL2    -0.180000       12.0110           0
     19972 MEMB     173      POPC     H13R     HAL2     0.900000E-01   1.00800           0
     19973 MEMB     173      POPC     H13S     HAL2     0.900000E-01   1.00800           0
     19974 MEMB     173      POPC     C214     CTL2    -0.180000       12.0110           0
     19975 MEMB     173      POPC     H14R     HAL2     0.900000E-01   1.00800           0
     19976 MEMB     173      POPC     H14S     HAL2     0.900000E-01   1.00800           0
     19977 MEMB     173      POPC     C215     CTL2    -0.180000       12.0110           0
     19978 MEMB     173      POPC     H15R     HAL2     0.900000E-01   1.00800           0
     19979 MEMB     173      POPC     H15S     HAL2     0.900000E-01   1.00800           0
     19980 MEMB     173      POPC     C216     CTL2    -0.180000       12.0110           0
     19981 MEMB     173      POPC     H16R     HAL2     0.900000E-01   1.00800           0
     19982 MEMB     173      POPC     H16S     HAL2     0.900000E-01   1.00800           0
     19983 MEMB     173      POPC     C217     CTL2    -0.180000       12.0110           0
     19984 MEMB     173      POPC     H17R     HAL2     0.900000E-01   1.00800           0
     19985 MEMB     173      POPC     H17S     HAL2     0.900000E-01   1.00800           0
     19986 MEMB     173      POPC     C218     CTL3    -0.270000       12.0110           0
     19987 MEMB     173      POPC     H18R     HAL3     0.900000E-01   1.00800           0
     19988 MEMB     173      POPC     H18S     HAL3     0.900000E-01   1.00800           0
     19989 MEMB     173      POPC     H18T     HAL3     0.900000E-01   1.00800           0
     19990 MEMB     173      POPC     C33      CTL2    -0.180000       12.0110           0
     19991 MEMB     173      POPC     H3X      HAL2     0.900000E-01   1.00800           0
     19992 MEMB     173      POPC     H3Y      HAL2     0.900000E-01   1.00800           0
     19993 MEMB     173      POPC     C34      CTL2    -0.180000       12.0110           0
     19994 MEMB     173      POPC     H4X      HAL2     0.900000E-01   1.00800           0
     19995 MEMB     173      POPC     H4Y      HAL2     0.900000E-01   1.00800           0
     19996 MEMB     173      POPC     C35      CTL2    -0.180000       12.0110           0
     19997 MEMB     173      POPC     H5X      HAL2     0.900000E-01   1.00800           0
     19998 MEMB     173      POPC     H5Y      HAL2     0.900000E-01   1.00800           0
     19999 MEMB     173      POPC     C36      CTL2    -0.180000       12.0110           0
     20000 MEMB     173      POPC     H6X      HAL2     0.900000E-01   1.00800           0
     20001 MEMB     173      POPC     H6Y      HAL2     0.900000E-01   1.00800           0
     20002 MEMB     173      POPC     C37      CTL2    -0.180000       12.0110           0
     20003 MEMB     173      POPC     H7X      HAL2     0.900000E-01   1.00800           0
     20004 MEMB     173      POPC     H7Y      HAL2     0.900000E-01   1.00800           0
     20005 MEMB     173      POPC     C38      CTL2    -0.180000       12.0110           0
     20006 MEMB     173      POPC     H8X      HAL2     0.900000E-01   1.00800           0
     20007 MEMB     173      POPC     H8Y      HAL2     0.900000E-01   1.00800           0
     20008 MEMB     173      POPC     C39      CTL2    -0.180000       12.0110           0
     20009 MEMB     173      POPC     H9X      HAL2     0.900000E-01   1.00800           0
     20010 MEMB     173      POPC     H9Y      HAL2     0.900000E-01   1.00800           0
     20011 MEMB     173      POPC     C310     CTL2    -0.180000       12.0110           0
     20012 MEMB     173      POPC     H10X     HAL2     0.900000E-01   1.00800           0
     20013 MEMB     173      POPC     H10Y     HAL2     0.900000E-01   1.00800           0
     20014 MEMB     173      POPC     C311     CTL2    -0.180000       12.0110           0
     20015 MEMB     173      POPC     H11X     HAL2     0.900000E-01   1.00800           0
     20016 MEMB     173      POPC     H11Y     HAL2     0.900000E-01   1.00800           0
     20017 MEMB     173      POPC     C312     CTL2    -0.180000       12.0110           0
     20018 MEMB     173      POPC     H12X     HAL2     0.900000E-01   1.00800           0
     20019 MEMB     173      POPC     H12Y     HAL2     0.900000E-01   1.00800           0
     20020 MEMB     173      POPC     C313     CTL2    -0.180000       12.0110           0
     20021 MEMB     173      POPC     H13X     HAL2     0.900000E-01   1.00800           0
     20022 MEMB     173      POPC     H13Y     HAL2     0.900000E-01   1.00800           0
     20023 MEMB     173      POPC     C314     CTL2    -0.180000       12.0110           0
     20024 MEMB     173      POPC     H14X     HAL2     0.900000E-01   1.00800           0
     20025 MEMB     173      POPC     H14Y     HAL2     0.900000E-01   1.00800           0
     20026 MEMB     173      POPC     C315     CTL2    -0.180000       12.0110           0
     20027 MEMB     173      POPC     H15X     HAL2     0.900000E-01   1.00800           0
     20028 MEMB     173      POPC     H15Y     HAL2     0.900000E-01   1.00800           0
     20029 MEMB     173      POPC     C316     CTL3    -0.270000       12.0110           0
     20030 MEMB     173      POPC     H16X     HAL3     0.900000E-01   1.00800           0
     20031 MEMB     173      POPC     H16Y     HAL3     0.900000E-01   1.00800           0
     20032 MEMB     173      POPC     H16Z     HAL3     0.900000E-01   1.00800           0
     20033 MEMB     174      CHL1     C3       CRL1     0.140000       12.0110           0
     20034 MEMB     174      CHL1     H3       HGA1     0.900000E-01   1.00800           0
     20035 MEMB     174      CHL1     O3       OHL     -0.660000       15.9994           0
     20036 MEMB     174      CHL1     H3'      HOL      0.430000       1.00800           0
     20037 MEMB     174      CHL1     C4       CRL2    -0.180000       12.0110           0
     20038 MEMB     174      CHL1     H4A      HGA2     0.900000E-01   1.00800           0
     20039 MEMB     174      CHL1     H4B      HGA2     0.900000E-01   1.00800           0
     20040 MEMB     174      CHL1     C5       CEL1      0.00000       12.0110           0
     20041 MEMB     174      CHL1     C6       CEL1    -0.150000       12.0110           0
     20042 MEMB     174      CHL1     H6       HEL1     0.150000       1.00800           0
     20043 MEMB     174      CHL1     C7       CRL2    -0.180000       12.0110           0
     20044 MEMB     174      CHL1     H7A      HGA2     0.900000E-01   1.00800           0
     20045 MEMB     174      CHL1     H7B      HGA2     0.900000E-01   1.00800           0
     20046 MEMB     174      CHL1     C8       CRL1    -0.900000E-01   12.0110           0
     20047 MEMB     174      CHL1     H8       HGA1     0.900000E-01   1.00800           0
     20048 MEMB     174      CHL1     C14      CRL1    -0.900000E-01   12.0110           0
     20049 MEMB     174      CHL1     H14      HGA1     0.900000E-01   1.00800           0
     20050 MEMB     174      CHL1     C15      CRL2    -0.180000       12.0110           0
     20051 MEMB     174      CHL1     H15A     HGA2     0.900000E-01   1.00800           0
     20052 MEMB     174      CHL1     H15B     HGA2     0.900000E-01   1.00800           0
     20053 MEMB     174      CHL1     C16      CRL2    -0.180000       12.0110           0
     20054 MEMB     174      CHL1     H16A     HGA2     0.900000E-01   1.00800           0
     20055 MEMB     174      CHL1     H16B     HGA2     0.900000E-01   1.00800           0
     20056 MEMB     174      CHL1     C17      CRL1    -0.900000E-01   12.0110           0
     20057 MEMB     174      CHL1     H17      HGA1     0.900000E-01   1.00800           0
     20058 MEMB     174      CHL1     C13      CRL1      0.00000       12.0110           0
     20059 MEMB     174      CHL1     C18      CTL3    -0.270000       12.0110           0
     20060 MEMB     174      CHL1     H18A     HAL3     0.900000E-01   1.00800           0
     20061 MEMB     174      CHL1     H18B     HAL3     0.900000E-01   1.00800           0
     20062 MEMB     174      CHL1     H18C     HAL3     0.900000E-01   1.00800           0
     20063 MEMB     174      CHL1     C12      CRL2    -0.180000       12.0110           0
     20064 MEMB     174      CHL1     H12A     HGA2     0.900000E-01   1.00800           0
     20065 MEMB     174      CHL1     H12B     HGA2     0.900000E-01   1.00800           0
     20066 MEMB     174      CHL1     C11      CRL2    -0.180000       12.0110           0
     20067 MEMB     174      CHL1     H11A     HGA2     0.900000E-01   1.00800           0
     20068 MEMB     174      CHL1     H11B     HGA2     0.900000E-01   1.00800           0
     20069 MEMB     174      CHL1     C9       CRL1    -0.900000E-01   12.0110           0
     20070 MEMB     174      CHL1     H9       HGA1     0.900000E-01   1.00800           0
     20071 MEMB     174      CHL1     C10      CRL1      0.00000       12.0110           0
     20072 MEMB     174      CHL1     C19      CTL3    -0.270000       12.0110           0
     20073 MEMB     174      CHL1     H19A     HAL3     0.900000E-01   1.00800           0
     20074 MEMB     174      CHL1     H19B     HAL3     0.900000E-01   1.00800           0
     20075 MEMB     174      CHL1     H19C     HAL3     0.900000E-01   1.00800           0
     20076 MEMB     174      CHL1     C1       CRL2    -0.180000       12.0110           0
     20077 MEMB     174      CHL1     H1A      HGA2     0.900000E-01   1.00800           0
     20078 MEMB     174      CHL1     H1B      HGA2     0.900000E-01   1.00800           0
     20079 MEMB     174      CHL1     C2       CRL2    -0.180000       12.0110           0
     20080 MEMB     174      CHL1     H2A      HGA2     0.900000E-01   1.00800           0
     20081 MEMB     174      CHL1     H2B      HGA2     0.900000E-01   1.00800           0
     20082 MEMB     174      CHL1     C20      CTL1    -0.900000E-01   12.0110           0
     20083 MEMB     174      CHL1     H20      HAL1     0.900000E-01   1.00800           0
     20084 MEMB     174      CHL1     C21      CTL3    -0.270000       12.0110           0
     20085 MEMB     174      CHL1     H21A     HAL3     0.900000E-01   1.00800           0
     20086 MEMB     174      CHL1     H21B     HAL3     0.900000E-01   1.00800           0
     20087 MEMB     174      CHL1     H21C     HAL3     0.900000E-01   1.00800           0
     20088 MEMB     174      CHL1     C22      CTL2    -0.180000       12.0110           0
     20089 MEMB     174      CHL1     H22A     HAL2     0.900000E-01   1.00800           0
     20090 MEMB     174      CHL1     H22B     HAL2     0.900000E-01   1.00800           0
     20091 MEMB     174      CHL1     C23      CTL2    -0.180000       12.0110           0
     20092 MEMB     174      CHL1     H23A     HAL2     0.900000E-01   1.00800           0
     20093 MEMB     174      CHL1     H23B     HAL2     0.900000E-01   1.00800           0
     20094 MEMB     174      CHL1     C24      CTL2    -0.180000       12.0110           0
     20095 MEMB     174      CHL1     H24A     HAL2     0.900000E-01   1.00800           0
     20096 MEMB     174      CHL1     H24B     HAL2     0.900000E-01   1.00800           0
     20097 MEMB     174      CHL1     C25      CTL1    -0.900000E-01   12.0110           0
     20098 MEMB     174      CHL1     H25      HAL1     0.900000E-01   1.00800           0
     20099 MEMB     174      CHL1     C26      CTL3    -0.270000       12.0110           0
     20100 MEMB     174      CHL1     H26A     HAL3     0.900000E-01   1.00800           0
     20101 MEMB     174      CHL1     H26B     HAL3     0.900000E-01   1.00800           0
     20102 MEMB     174      CHL1     H26C     HAL3     0.900000E-01   1.00800           0
     20103 MEMB     174      CHL1     C27      CTL3    -0.270000       12.0110           0
     20104 MEMB     174      CHL1     H27A     HAL3     0.900000E-01   1.00800           0
     20105 MEMB     174      CHL1     H27B     HAL3     0.900000E-01   1.00800           0
     20106 MEMB     174      CHL1     H27C     HAL3     0.900000E-01   1.00800           0
     20107 MEMB     175      SAPC     N        NTL     -0.600000       14.0070           0
     20108 MEMB     175      SAPC     C12      CTL2    -0.100000       12.0110           0
     20109 MEMB     175      SAPC     H12A     HL       0.250000       1.00800           0
     20110 MEMB     175      SAPC     H12B     HL       0.250000       1.00800           0
     20111 MEMB     175      SAPC     C13      CTL5    -0.350000       12.0110           0
     20112 MEMB     175      SAPC     H13A     HL       0.250000       1.00800           0
     20113 MEMB     175      SAPC     H13B     HL       0.250000       1.00800           0
     20114 MEMB     175      SAPC     H13C     HL       0.250000       1.00800           0
     20115 MEMB     175      SAPC     C14      CTL5    -0.350000       12.0110           0
     20116 MEMB     175      SAPC     H14A     HL       0.250000       1.00800           0
     20117 MEMB     175      SAPC     H14B     HL       0.250000       1.00800           0
     20118 MEMB     175      SAPC     H14C     HL       0.250000       1.00800           0
     20119 MEMB     175      SAPC     C15      CTL5    -0.350000       12.0110           0
     20120 MEMB     175      SAPC     H15A     HL       0.250000       1.00800           0
     20121 MEMB     175      SAPC     H15B     HL       0.250000       1.00800           0
     20122 MEMB     175      SAPC     H15C     HL       0.250000       1.00800           0
     20123 MEMB     175      SAPC     C11      CTL2    -0.800000E-01   12.0110           0
     20124 MEMB     175      SAPC     H11A     HAL2     0.900000E-01   1.00800           0
     20125 MEMB     175      SAPC     H11B     HAL2     0.900000E-01   1.00800           0
     20126 MEMB     175      SAPC     P        PL        1.50000       30.9740           0
     20127 MEMB     175      SAPC     O13      O2L     -0.780000       15.9994           0
     20128 MEMB     175      SAPC     O14      O2L     -0.780000       15.9994           0
     20129 MEMB     175      SAPC     O12      OSLP    -0.570000       15.9994           0
     20130 MEMB     175      SAPC     O11      OSLP    -0.570000       15.9994           0
     20131 MEMB     175      SAPC     C1       CTL2    -0.800000E-01   12.0110           0
     20132 MEMB     175      SAPC     HA       HAL2     0.900000E-01   1.00800           0
     20133 MEMB     175      SAPC     HB       HAL2     0.900000E-01   1.00800           0
     20134 MEMB     175      SAPC     C2       CTL1     0.170000       12.0110           0
     20135 MEMB     175      SAPC     HS       HAL1     0.900000E-01   1.00800           0
     20136 MEMB     175      SAPC     O21      OSL     -0.490000       15.9994           0
     20137 MEMB     175      SAPC     C21      CL       0.900000       12.0110           0
     20138 MEMB     175      SAPC     O22      OBL     -0.630000       15.9994           0
     20139 MEMB     175      SAPC     C22      CTL2    -0.220000       12.0110           0
     20140 MEMB     175      SAPC     H2R      HAL2     0.900000E-01   1.00800           0
     20141 MEMB     175      SAPC     H2S      HAL2     0.900000E-01   1.00800           0
     20142 MEMB     175      SAPC     C3       CTL2     0.800000E-01   12.0110           0
     20143 MEMB     175      SAPC     HX       HAL2     0.900000E-01   1.00800           0
     20144 MEMB     175      SAPC     HY       HAL2     0.900000E-01   1.00800           0
     20145 MEMB     175      SAPC     O31      OSL     -0.490000       15.9994           0
     20146 MEMB     175      SAPC     C31      CL       0.900000       12.0110           0
     20147 MEMB     175      SAPC     O32      OBL     -0.630000       15.9994           0
     20148 MEMB     175      SAPC     C32      CTL2    -0.220000       12.0110           0
     20149 MEMB     175      SAPC     H2X      HAL2     0.900000E-01   1.00800           0
     20150 MEMB     175      SAPC     H2Y      HAL2     0.900000E-01   1.00800           0
     20151 MEMB     175      SAPC     C23      CTL2    -0.180000       12.0110           0
     20152 MEMB     175      SAPC     H3R      HAL2     0.900000E-01   1.00800           0
     20153 MEMB     175      SAPC     H3S      HAL2     0.900000E-01   1.00800           0
     20154 MEMB     175      SAPC     C24      CTL2    -0.180000       12.0110           0
     20155 MEMB     175      SAPC     H4R      HAL2     0.900000E-01   1.00800           0
     20156 MEMB     175      SAPC     H4S      HAL2     0.900000E-01   1.00800           0
     20157 MEMB     175      SAPC     C25      CEL1    -0.150000       12.0110           0
     20158 MEMB     175      SAPC     H5R      HEL1     0.150000       1.00800           0
     20159 MEMB     175      SAPC     C26      CEL1    -0.150000       12.0110           0
     20160 MEMB     175      SAPC     H6R      HEL1     0.150000       1.00800           0
     20161 MEMB     175      SAPC     C27      CTL2    -0.180000       12.0110           0
     20162 MEMB     175      SAPC     H7R      HAL2     0.900000E-01   1.00800           0
     20163 MEMB     175      SAPC     H7S      HAL2     0.900000E-01   1.00800           0
     20164 MEMB     175      SAPC     C28      CEL1    -0.150000       12.0110           0
     20165 MEMB     175      SAPC     H8R      HEL1     0.150000       1.00800           0
     20166 MEMB     175      SAPC     C29      CEL1    -0.150000       12.0110           0
     20167 MEMB     175      SAPC     H9R      HEL1     0.150000       1.00800           0
     20168 MEMB     175      SAPC     C210     CTL2    -0.180000       12.0110           0
     20169 MEMB     175      SAPC     H10R     HAL2     0.900000E-01   1.00800           0
     20170 MEMB     175      SAPC     H10S     HAL2     0.900000E-01   1.00800           0
     20171 MEMB     175      SAPC     C211     CEL1    -0.150000       12.0110           0
     20172 MEMB     175      SAPC     H11R     HEL1     0.150000       1.00800           0
     20173 MEMB     175      SAPC     C212     CEL1    -0.150000       12.0110           0
     20174 MEMB     175      SAPC     H12R     HEL1     0.150000       1.00800           0
     20175 MEMB     175      SAPC     C213     CTL2    -0.180000       12.0110           0
     20176 MEMB     175      SAPC     H13R     HAL2     0.900000E-01   1.00800           0
     20177 MEMB     175      SAPC     H13S     HAL2     0.900000E-01   1.00800           0
     20178 MEMB     175      SAPC     C214     CEL1    -0.150000       12.0110           0
     20179 MEMB     175      SAPC     H14R     HEL1     0.150000       1.00800           0
     20180 MEMB     175      SAPC     C215     CEL1    -0.150000       12.0110           0
     20181 MEMB     175      SAPC     H15R     HEL1     0.150000       1.00800           0
     20182 MEMB     175      SAPC     C216     CTL2    -0.180000       12.0110           0
     20183 MEMB     175      SAPC     H16R     HAL2     0.900000E-01   1.00800           0
     20184 MEMB     175      SAPC     H16S     HAL2     0.900000E-01   1.00800           0
     20185 MEMB     175      SAPC     C217     CTL2    -0.180000       12.0110           0
     20186 MEMB     175      SAPC     H17R     HAL2     0.900000E-01   1.00800           0
     20187 MEMB     175      SAPC     H17S     HAL2     0.900000E-01   1.00800           0
     20188 MEMB     175      SAPC     C218     CTL2    -0.270000       12.0110           0
     20189 MEMB     175      SAPC     H18R     HAL2     0.900000E-01   1.00800           0
     20190 MEMB     175      SAPC     H18S     HAL2     0.900000E-01   1.00800           0
     20191 MEMB     175      SAPC     C219     CTL2    -0.180000       12.0110           0
     20192 MEMB     175      SAPC     H19R     HAL2     0.900000E-01   1.00800           0
     20193 MEMB     175      SAPC     H19S     HAL2     0.900000E-01   1.00800           0
     20194 MEMB     175      SAPC     C220     CTL3    -0.180000       12.0110           0
     20195 MEMB     175      SAPC     H20R     HAL3     0.900000E-01   1.00800           0
     20196 MEMB     175      SAPC     H20S     HAL3     0.900000E-01   1.00800           0
     20197 MEMB     175      SAPC     H20T     HAL3     0.900000E-01   1.00800           0
     20198 MEMB     175      SAPC     C33      CTL2    -0.180000       12.0110           0
     20199 MEMB     175      SAPC     H3X      HAL2     0.900000E-01   1.00800           0
     20200 MEMB     175      SAPC     H3Y      HAL2     0.900000E-01   1.00800           0
     20201 MEMB     175      SAPC     C34      CTL2    -0.180000       12.0110           0
     20202 MEMB     175      SAPC     H4X      HAL2     0.900000E-01   1.00800           0
     20203 MEMB     175      SAPC     H4Y      HAL2     0.900000E-01   1.00800           0
     20204 MEMB     175      SAPC     C35      CTL2    -0.180000       12.0110           0
     20205 MEMB     175      SAPC     H5X      HAL2     0.900000E-01   1.00800           0
     20206 MEMB     175      SAPC     H5Y      HAL2     0.900000E-01   1.00800           0
     20207 MEMB     175      SAPC     C36      CTL2    -0.180000       12.0110           0
     20208 MEMB     175      SAPC     H6X      HAL2     0.900000E-01   1.00800           0
     20209 MEMB     175      SAPC     H6Y      HAL2     0.900000E-01   1.00800           0
     20210 MEMB     175      SAPC     C37      CTL2    -0.180000       12.0110           0
     20211 MEMB     175      SAPC     H7X      HAL2     0.900000E-01   1.00800           0
     20212 MEMB     175      SAPC     H7Y      HAL2     0.900000E-01   1.00800           0
     20213 MEMB     175      SAPC     C38      CTL2    -0.180000       12.0110           0
     20214 MEMB     175      SAPC     H8X      HAL2     0.900000E-01   1.00800           0
     20215 MEMB     175      SAPC     H8Y      HAL2     0.900000E-01   1.00800           0
     20216 MEMB     175      SAPC     C39      CTL2    -0.180000       12.0110           0
     20217 MEMB     175      SAPC     H9X      HAL2     0.900000E-01   1.00800           0
     20218 MEMB     175      SAPC     H9Y      HAL2     0.900000E-01   1.00800           0
     20219 MEMB     175      SAPC     C310     CTL2    -0.180000       12.0110           0
     20220 MEMB     175      SAPC     H10X     HAL2     0.900000E-01   1.00800           0
     20221 MEMB     175      SAPC     H10Y     HAL2     0.900000E-01   1.00800           0
     20222 MEMB     175      SAPC     C311     CTL2    -0.180000       12.0110           0
     20223 MEMB     175      SAPC     H11X     HAL2     0.900000E-01   1.00800           0
     20224 MEMB     175      SAPC     H11Y     HAL2     0.900000E-01   1.00800           0
     20225 MEMB     175      SAPC     C312     CTL2    -0.180000       12.0110           0
     20226 MEMB     175      SAPC     H12X     HAL2     0.900000E-01   1.00800           0
     20227 MEMB     175      SAPC     H12Y     HAL2     0.900000E-01   1.00800           0
     20228 MEMB     175      SAPC     C313     CTL2    -0.180000       12.0110           0
     20229 MEMB     175      SAPC     H13X     HAL2     0.900000E-01   1.00800           0
     20230 MEMB     175      SAPC     H13Y     HAL2     0.900000E-01   1.00800           0
     20231 MEMB     175      SAPC     C314     CTL2    -0.180000       12.0110           0
     20232 MEMB     175      SAPC     H14X     HAL2     0.900000E-01   1.00800           0
     20233 MEMB     175      SAPC     H14Y     HAL2     0.900000E-01   1.00800           0
     20234 MEMB     175      SAPC     C315     CTL2    -0.180000       12.0110           0
     20235 MEMB     175      SAPC     H15X     HAL2     0.900000E-01   1.00800           0
     20236 MEMB     175      SAPC     H15Y     HAL2     0.900000E-01   1.00800           0
     20237 MEMB     175      SAPC     C316     CTL2    -0.180000       12.0110           0
     20238 MEMB     175      SAPC     H16X     HAL2     0.900000E-01   1.00800           0
     20239 MEMB     175      SAPC     H16Y     HAL2     0.900000E-01   1.00800           0
     20240 MEMB     175      SAPC     C317     CTL2    -0.180000       12.0110           0
     20241 MEMB     175      SAPC     H17X     HAL2     0.900000E-01   1.00800           0
     20242 MEMB     175      SAPC     H17Y     HAL2     0.900000E-01   1.00800           0
     20243 MEMB     175      SAPC     C318     CTL3    -0.270000       12.0110           0
     20244 MEMB     175      SAPC     H18X     HAL3     0.900000E-01   1.00800           0
     20245 MEMB     175      SAPC     H18Y     HAL3     0.900000E-01   1.00800           0
     20246 MEMB     175      SAPC     H18Z     HAL3     0.900000E-01   1.00800           0
     20247 MEMB     176      SAPE     N        NH3L    -0.300000       14.0070           0
     20248 MEMB     176      SAPE     HN1      HCL      0.330000       1.00800           0
     20249 MEMB     176      SAPE     HN2      HCL      0.330000       1.00800           0
     20250 MEMB     176      SAPE     HN3      HCL      0.330000       1.00800           0
     20251 MEMB     176      SAPE     C12      CTL2     0.130000       12.0110           0
     20252 MEMB     176      SAPE     H12A     HAL2     0.900000E-01   1.00800           0
     20253 MEMB     176      SAPE     H12B     HAL2     0.900000E-01   1.00800           0
     20254 MEMB     176      SAPE     C11      CTL2    -0.800000E-01   12.0110           0
     20255 MEMB     176      SAPE     H11A     HAL2     0.900000E-01   1.00800           0
     20256 MEMB     176      SAPE     H11B     HAL2     0.900000E-01   1.00800           0
     20257 MEMB     176      SAPE     P        PL        1.50000       30.9740           0
     20258 MEMB     176      SAPE     O13      O2L     -0.780000       15.9994           0
     20259 MEMB     176      SAPE     O14      O2L     -0.780000       15.9994           0
     20260 MEMB     176      SAPE     O12      OSLP    -0.570000       15.9994           0
     20261 MEMB     176      SAPE     O11      OSLP    -0.570000       15.9994           0
     20262 MEMB     176      SAPE     C1       CTL2    -0.800000E-01   12.0110           0
     20263 MEMB     176      SAPE     HA       HAL2     0.900000E-01   1.00800           0
     20264 MEMB     176      SAPE     HB       HAL2     0.900000E-01   1.00800           0
     20265 MEMB     176      SAPE     C2       CTL1     0.170000       12.0110           0
     20266 MEMB     176      SAPE     HS       HAL1     0.900000E-01   1.00800           0
     20267 MEMB     176      SAPE     O21      OSL     -0.490000       15.9994           0
     20268 MEMB     176      SAPE     C21      CL       0.900000       12.0110           0
     20269 MEMB     176      SAPE     O22      OBL     -0.630000       15.9994           0
     20270 MEMB     176      SAPE     C22      CTL2    -0.220000       12.0110           0
     20271 MEMB     176      SAPE     H2R      HAL2     0.900000E-01   1.00800           0
     20272 MEMB     176      SAPE     H2S      HAL2     0.900000E-01   1.00800           0
     20273 MEMB     176      SAPE     C3       CTL2     0.800000E-01   12.0110           0
     20274 MEMB     176      SAPE     HX       HAL2     0.900000E-01   1.00800           0
     20275 MEMB     176      SAPE     HY       HAL2     0.900000E-01   1.00800           0
     20276 MEMB     176      SAPE     O31      OSL     -0.490000       15.9994           0
     20277 MEMB     176      SAPE     C31      CL       0.900000       12.0110           0
     20278 MEMB     176      SAPE     O32      OBL     -0.630000       15.9994           0
     20279 MEMB     176      SAPE     C32      CTL2    -0.220000       12.0110           0
     20280 MEMB     176      SAPE     H2X      HAL2     0.900000E-01   1.00800           0
     20281 MEMB     176      SAPE     H2Y      HAL2     0.900000E-01   1.00800           0
     20282 MEMB     176      SAPE     C23      CTL2    -0.180000       12.0110           0
     20283 MEMB     176      SAPE     H3R      HAL2     0.900000E-01   1.00800           0
     20284 MEMB     176      SAPE     H3S      HAL2     0.900000E-01   1.00800           0
     20285 MEMB     176      SAPE     C24      CTL2    -0.180000       12.0110           0
     20286 MEMB     176      SAPE     H4R      HAL2     0.900000E-01   1.00800           0
     20287 MEMB     176      SAPE     H4S      HAL2     0.900000E-01   1.00800           0
     20288 MEMB     176      SAPE     C25      CEL1    -0.150000       12.0110           0
     20289 MEMB     176      SAPE     H5R      HEL1     0.150000       1.00800           0
     20290 MEMB     176      SAPE     C26      CEL1    -0.150000       12.0110           0
     20291 MEMB     176      SAPE     H6R      HEL1     0.150000       1.00800           0
     20292 MEMB     176      SAPE     C27      CTL2    -0.180000       12.0110           0
     20293 MEMB     176      SAPE     H7R      HAL2     0.900000E-01   1.00800           0
     20294 MEMB     176      SAPE     H7S      HAL2     0.900000E-01   1.00800           0
     20295 MEMB     176      SAPE     C28      CEL1    -0.150000       12.0110           0
     20296 MEMB     176      SAPE     H8R      HEL1     0.150000       1.00800           0
     20297 MEMB     176      SAPE     C29      CEL1    -0.150000       12.0110           0
     20298 MEMB     176      SAPE     H9R      HEL1     0.150000       1.00800           0
     20299 MEMB     176      SAPE     C210     CTL2    -0.180000       12.0110           0
     20300 MEMB     176      SAPE     H10R     HAL2     0.900000E-01   1.00800           0
     20301 MEMB     176      SAPE     H10S     HAL2     0.900000E-01   1.00800           0
     20302 MEMB     176      SAPE     C211     CEL1    -0.150000       12.0110           0
     20303 MEMB     176      SAPE     H11R     HEL1     0.150000       1.00800           0
     20304 MEMB     176      SAPE     C212     CEL1    -0.150000       12.0110           0
     20305 MEMB     176      SAPE     H12R     HEL1     0.150000       1.00800           0
     20306 MEMB     176      SAPE     C213     CTL2    -0.180000       12.0110           0
     20307 MEMB     176      SAPE     H13R     HAL2     0.900000E-01   1.00800           0
     20308 MEMB     176      SAPE     H13S     HAL2     0.900000E-01   1.00800           0
     20309 MEMB     176      SAPE     C214     CEL1    -0.150000       12.0110           0
     20310 MEMB     176      SAPE     H14R     HEL1     0.150000       1.00800           0
     20311 MEMB     176      SAPE     C215     CEL1    -0.150000       12.0110           0
     20312 MEMB     176      SAPE     H15R     HEL1     0.150000       1.00800           0
     20313 MEMB     176      SAPE     C216     CTL2    -0.180000       12.0110           0
     20314 MEMB     176      SAPE     H16R     HAL2     0.900000E-01   1.00800           0
     20315 MEMB     176      SAPE     H16S     HAL2     0.900000E-01   1.00800           0
     20316 MEMB     176      SAPE     C217     CTL2    -0.180000       12.0110           0
     20317 MEMB     176      SAPE     H17R     HAL2     0.900000E-01   1.00800           0
     20318 MEMB     176      SAPE     H17S     HAL2     0.900000E-01   1.00800           0
     20319 MEMB     176      SAPE     C218     CTL2    -0.180000       12.0110           0
     20320 MEMB     176      SAPE     H18R     HAL2     0.900000E-01   1.00800           0
     20321 MEMB     176      SAPE     H18S     HAL2     0.900000E-01   1.00800           0
     20322 MEMB     176      SAPE     C219     CTL2    -0.180000       12.0110           0
     20323 MEMB     176      SAPE     H19R     HAL2     0.900000E-01   1.00800           0
     20324 MEMB     176      SAPE     H19S     HAL2     0.900000E-01   1.00800           0
     20325 MEMB     176      SAPE     C220     CTL3    -0.270000       12.0110           0
     20326 MEMB     176      SAPE     H20R     HAL3     0.900000E-01   1.00800           0
     20327 MEMB     176      SAPE     H20S     HAL3     0.900000E-01   1.00800           0
     20328 MEMB     176      SAPE     H20T     HAL3     0.900000E-01   1.00800           0
     20329 MEMB     176      SAPE     C33      CTL2    -0.180000       12.0110           0
     20330 MEMB     176      SAPE     H3X      HAL2     0.900000E-01   1.00800           0
     20331 MEMB     176      SAPE     H3Y      HAL2     0.900000E-01   1.00800           0
     20332 MEMB     176      SAPE     C34      CTL2    -0.180000       12.0110           0
     20333 MEMB     176      SAPE     H4X      HAL2     0.900000E-01   1.00800           0
     20334 MEMB     176      SAPE     H4Y      HAL2     0.900000E-01   1.00800           0
     20335 MEMB     176      SAPE     C35      CTL2    -0.180000       12.0110           0
     20336 MEMB     176      SAPE     H5X      HAL2     0.900000E-01   1.00800           0
     20337 MEMB     176      SAPE     H5Y      HAL2     0.900000E-01   1.00800           0
     20338 MEMB     176      SAPE     C36      CTL2    -0.180000       12.0110           0
     20339 MEMB     176      SAPE     H6X      HAL2     0.900000E-01   1.00800           0
     20340 MEMB     176      SAPE     H6Y      HAL2     0.900000E-01   1.00800           0
     20341 MEMB     176      SAPE     C37      CTL2    -0.180000       12.0110           0
     20342 MEMB     176      SAPE     H7X      HAL2     0.900000E-01   1.00800           0
     20343 MEMB     176      SAPE     H7Y      HAL2     0.900000E-01   1.00800           0
     20344 MEMB     176      SAPE     C38      CTL2    -0.180000       12.0110           0
     20345 MEMB     176      SAPE     H8X      HAL2     0.900000E-01   1.00800           0
     20346 MEMB     176      SAPE     H8Y      HAL2     0.900000E-01   1.00800           0
     20347 MEMB     176      SAPE     C39      CTL2    -0.180000       12.0110           0
     20348 MEMB     176      SAPE     H9X      HAL2     0.900000E-01   1.00800           0
     20349 MEMB     176      SAPE     H9Y      HAL2     0.900000E-01   1.00800           0
     20350 MEMB     176      SAPE     C310     CTL2    -0.180000       12.0110           0
     20351 MEMB     176      SAPE     H10X     HAL2     0.900000E-01   1.00800           0
     20352 MEMB     176      SAPE     H10Y     HAL2     0.900000E-01   1.00800           0
     20353 MEMB     176      SAPE     C311     CTL2    -0.180000       12.0110           0
     20354 MEMB     176      SAPE     H11X     HAL2     0.900000E-01   1.00800           0
     20355 MEMB     176      SAPE     H11Y     HAL2     0.900000E-01   1.00800           0
     20356 MEMB     176      SAPE     C312     CTL2    -0.180000       12.0110           0
     20357 MEMB     176      SAPE     H12X     HAL2     0.900000E-01   1.00800           0
     20358 MEMB     176      SAPE     H12Y     HAL2     0.900000E-01   1.00800           0
     20359 MEMB     176      SAPE     C313     CTL2    -0.180000       12.0110           0
     20360 MEMB     176      SAPE     H13X     HAL2     0.900000E-01   1.00800           0
     20361 MEMB     176      SAPE     H13Y     HAL2     0.900000E-01   1.00800           0
     20362 MEMB     176      SAPE     C314     CTL2    -0.180000       12.0110           0
     20363 MEMB     176      SAPE     H14X     HAL2     0.900000E-01   1.00800           0
     20364 MEMB     176      SAPE     H14Y     HAL2     0.900000E-01   1.00800           0
     20365 MEMB     176      SAPE     C315     CTL2    -0.180000       12.0110           0
     20366 MEMB     176      SAPE     H15X     HAL2     0.900000E-01   1.00800           0
     20367 MEMB     176      SAPE     H15Y     HAL2     0.900000E-01   1.00800           0
     20368 MEMB     176      SAPE     C316     CTL2    -0.180000       12.0110           0
     20369 MEMB     176      SAPE     H16X     HAL2     0.900000E-01   1.00800           0
     20370 MEMB     176      SAPE     H16Y     HAL2     0.900000E-01   1.00800           0
     20371 MEMB     176      SAPE     C317     CTL2    -0.180000       12.0110           0
     20372 MEMB     176      SAPE     H17X     HAL2     0.900000E-01   1.00800           0
     20373 MEMB     176      SAPE     H17Y     HAL2     0.900000E-01   1.00800           0
     20374 MEMB     176      SAPE     C318     CTL3    -0.270000       12.0110           0
     20375 MEMB     176      SAPE     H18X     HAL3     0.900000E-01   1.00800           0
     20376 MEMB     176      SAPE     H18Y     HAL3     0.900000E-01   1.00800           0
     20377 MEMB     176      SAPE     H18Z     HAL3     0.900000E-01   1.00800           0
     20378 MEMB     177      OSM      N        NTL     -0.600000       14.0070           0
     20379 MEMB     177      OSM      C15      CTL5    -0.350000       12.0110           0
     20380 MEMB     177      OSM      H15A     HL       0.250000       1.00800           0
     20381 MEMB     177      OSM      H15B     HL       0.250000       1.00800           0
     20382 MEMB     177      OSM      H15C     HL       0.250000       1.00800           0
     20383 MEMB     177      OSM      C14      CTL5    -0.350000       12.0110           0
     20384 MEMB     177      OSM      H14A     HL       0.250000       1.00800           0
     20385 MEMB     177      OSM      H14B     HL       0.250000       1.00800           0
     20386 MEMB     177      OSM      H14C     HL       0.250000       1.00800           0
     20387 MEMB     177      OSM      C13      CTL5    -0.350000       12.0110           0
     20388 MEMB     177      OSM      H13A     HL       0.250000       1.00800           0
     20389 MEMB     177      OSM      H13B     HL       0.250000       1.00800           0
     20390 MEMB     177      OSM      H13C     HL       0.250000       1.00800           0
     20391 MEMB     177      OSM      C12      CTL2    -0.100000       12.0110           0
     20392 MEMB     177      OSM      H12A     HL       0.250000       1.00800           0
     20393 MEMB     177      OSM      H12B     HL       0.250000       1.00800           0
     20394 MEMB     177      OSM      C11      CTL2    -0.800000E-01   12.0110           0
     20395 MEMB     177      OSM      H11A     HAL2     0.900000E-01   1.00800           0
     20396 MEMB     177      OSM      H11B     HAL2     0.900000E-01   1.00800           0
     20397 MEMB     177      OSM      P        PL        1.50000       30.9740           0
     20398 MEMB     177      OSM      O13      O2L     -0.780000       15.9994           0
     20399 MEMB     177      OSM      O14      O2L     -0.780000       15.9994           0
     20400 MEMB     177      OSM      O11      OSLP    -0.570000       15.9994           0
     20401 MEMB     177      OSM      O12      OSLP    -0.570000       15.9994           0
     20402 MEMB     177      OSM      C1S      CTL2    -0.800000E-01   12.0110           0
     20403 MEMB     177      OSM      H1S      HAL2     0.900000E-01   1.00800           0
     20404 MEMB     177      OSM      H1T      HAL2     0.900000E-01   1.00800           0
     20405 MEMB     177      OSM      NF       NHL     -0.700000       14.0070           0
     20406 MEMB     177      OSM      HNF      H        0.350000       1.00800           0
     20407 MEMB     177      OSM      C2S      CTL1     0.300000       12.0110           0
     20408 MEMB     177      OSM      H2S      HAL1     0.500000E-01   1.00800           0
     20409 MEMB     177      OSM      C3S      CTO1     0.500000       12.0110           0
     20410 MEMB     177      OSM      H3S      HAL1    -0.110000       1.00800           0
     20411 MEMB     177      OSM      O3       OHL     -0.690000       15.9994           0
     20412 MEMB     177      OSM      HO3      HOL      0.300000       1.00800           0
     20413 MEMB     177      OSM      C4S      CEL3    -0.150000       12.0110           0
     20414 MEMB     177      OSM      H4S      HEL1     0.150000       1.00800           0
     20415 MEMB     177      OSM      C5S      CEL3    -0.150000       12.0110           0
     20416 MEMB     177      OSM      H5S      HEL1     0.150000       1.00800           0
     20417 MEMB     177      OSM      C6S      CTL2    -0.180000       12.0110           0
     20418 MEMB     177      OSM      H6S      HAL2     0.900000E-01   1.00800           0
     20419 MEMB     177      OSM      H6T      HAL2     0.900000E-01   1.00800           0
     20420 MEMB     177      OSM      C7S      CTL2    -0.180000       12.0110           0
     20421 MEMB     177      OSM      H7S      HAL2     0.900000E-01   1.00800           0
     20422 MEMB     177      OSM      H7T      HAL2     0.900000E-01   1.00800           0
     20423 MEMB     177      OSM      C8S      CTL2    -0.180000       12.0110           0
     20424 MEMB     177      OSM      H8S      HAL2     0.900000E-01   1.00800           0
     20425 MEMB     177      OSM      H8T      HAL2     0.900000E-01   1.00800           0
     20426 MEMB     177      OSM      C9S      CTL2    -0.180000       12.0110           0
     20427 MEMB     177      OSM      H9S      HAL2     0.900000E-01   1.00800           0
     20428 MEMB     177      OSM      H9T      HAL2     0.900000E-01   1.00800           0
     20429 MEMB     177      OSM      C10S     CTL2    -0.180000       12.0110           0
     20430 MEMB     177      OSM      H10S     HAL2     0.900000E-01   1.00800           0
     20431 MEMB     177      OSM      H10T     HAL2     0.900000E-01   1.00800           0
     20432 MEMB     177      OSM      C11S     CTL2    -0.180000       12.0110           0
     20433 MEMB     177      OSM      H11S     HAL2     0.900000E-01   1.00800           0
     20434 MEMB     177      OSM      H11T     HAL2     0.900000E-01   1.00800           0
     20435 MEMB     177      OSM      C12S     CTL2    -0.180000       12.0110           0
     20436 MEMB     177      OSM      H12S     HAL2     0.900000E-01   1.00800           0
     20437 MEMB     177      OSM      H12T     HAL2     0.900000E-01   1.00800           0
     20438 MEMB     177      OSM      C13S     CTL2    -0.180000       12.0110           0
     20439 MEMB     177      OSM      H13S     HAL2     0.900000E-01   1.00800           0
     20440 MEMB     177      OSM      H13T     HAL2     0.900000E-01   1.00800           0
     20441 MEMB     177      OSM      C14S     CTL2    -0.180000       12.0110           0
     20442 MEMB     177      OSM      H14S     HAL2     0.900000E-01   1.00800           0
     20443 MEMB     177      OSM      H14T     HAL2     0.900000E-01   1.00800           0
     20444 MEMB     177      OSM      C15S     CTL2    -0.180000       12.0110           0
     20445 MEMB     177      OSM      H15S     HAL2     0.900000E-01   1.00800           0
     20446 MEMB     177      OSM      H15T     HAL2     0.900000E-01   1.00800           0
     20447 MEMB     177      OSM      C16S     CTL2    -0.180000       12.0110           0
     20448 MEMB     177      OSM      H16S     HAL2     0.900000E-01   1.00800           0
     20449 MEMB     177      OSM      H16T     HAL2     0.900000E-01   1.00800           0
     20450 MEMB     177      OSM      C17S     CTL2    -0.180000       12.0110           0
     20451 MEMB     177      OSM      H17S     HAL2     0.900000E-01   1.00800           0
     20452 MEMB     177      OSM      H17T     HAL2     0.900000E-01   1.00800           0
     20453 MEMB     177      OSM      C18S     CTL3    -0.270000       12.0110           0
     20454 MEMB     177      OSM      H18S     HAL3     0.900000E-01   1.00800           0
     20455 MEMB     177      OSM      H18T     HAL3     0.900000E-01   1.00800           0
     20456 MEMB     177      OSM      H18U     HAL3     0.900000E-01   1.00800           0
     20457 MEMB     177      OSM      C1F      C        0.550000       12.0110           0
     20458 MEMB     177      OSM      OF       O       -0.600000       15.9994           0
     20459 MEMB     177      OSM      C2F      CTL2    -0.700000E-01   12.0110           0
     20460 MEMB     177      OSM      H2F      HAL2     0.600000E-01   1.00800           0
     20461 MEMB     177      OSM      H2G      HAL2     0.600000E-01   1.00800           0
     20462 MEMB     177      OSM      C3F      CTL2    -0.180000       12.0110           0
     20463 MEMB     177      OSM      H3F      HAL2     0.900000E-01   1.00800           0
     20464 MEMB     177      OSM      H3G      HAL2     0.900000E-01   1.00800           0
     20465 MEMB     177      OSM      C4F      CTL2    -0.180000       12.0110           0
     20466 MEMB     177      OSM      H4F      HAL2     0.900000E-01   1.00800           0
     20467 MEMB     177      OSM      H4G      HAL2     0.900000E-01   1.00800           0
     20468 MEMB     177      OSM      C5F      CTL2    -0.180000       12.0110           0
     20469 MEMB     177      OSM      H5F      HAL2     0.900000E-01   1.00800           0
     20470 MEMB     177      OSM      H5G      HAL2     0.900000E-01   1.00800           0
     20471 MEMB     177      OSM      C6F      CTL2    -0.180000       12.0110           0
     20472 MEMB     177      OSM      H6F      HAL2     0.900000E-01   1.00800           0
     20473 MEMB     177      OSM      H6G      HAL2     0.900000E-01   1.00800           0
     20474 MEMB     177      OSM      C7F      CTL2    -0.180000       12.0110           0
     20475 MEMB     177      OSM      H7F      HAL2     0.900000E-01   1.00800           0
     20476 MEMB     177      OSM      H7G      HAL2     0.900000E-01   1.00800           0
     20477 MEMB     177      OSM      C8F      CTL2    -0.180000       12.0110           0
     20478 MEMB     177      OSM      H8F      HAL2     0.900000E-01   1.00800           0
     20479 MEMB     177      OSM      H8G      HAL2     0.900000E-01   1.00800           0
     20480 MEMB     177      OSM      C9F      CEL1    -0.150000       12.0110           0
     20481 MEMB     177      OSM      H9F      HEL1     0.150000       1.00800           0
     20482 MEMB     177      OSM      C10F     CEL1    -0.150000       12.0110           0
     20483 MEMB     177      OSM      H10F     HEL1     0.150000       1.00800           0
     20484 MEMB     177      OSM      C11F     CTL2    -0.180000       12.0110           0
     20485 MEMB     177      OSM      H11F     HAL2     0.900000E-01   1.00800           0
     20486 MEMB     177      OSM      H11G     HAL2     0.900000E-01   1.00800           0
     20487 MEMB     177      OSM      C12F     CTL2    -0.180000       12.0110           0
     20488 MEMB     177      OSM      H12F     HAL2     0.900000E-01   1.00800           0
     20489 MEMB     177      OSM      H12G     HAL2     0.900000E-01   1.00800           0
     20490 MEMB     177      OSM      C13F     CTL2    -0.180000       12.0110           0
     20491 MEMB     177      OSM      H13F     HAL2     0.900000E-01   1.00800           0
     20492 MEMB     177      OSM      H13G     HAL2     0.900000E-01   1.00800           0
     20493 MEMB     177      OSM      C14F     CTL2    -0.180000       12.0110           0
     20494 MEMB     177      OSM      H14F     HAL2     0.900000E-01   1.00800           0
     20495 MEMB     177      OSM      H14G     HAL2     0.900000E-01   1.00800           0
     20496 MEMB     177      OSM      C15F     CTL2    -0.180000       12.0110           0
     20497 MEMB     177      OSM      H15F     HAL2     0.900000E-01   1.00800           0
     20498 MEMB     177      OSM      H15G     HAL2     0.900000E-01   1.00800           0
     20499 MEMB     177      OSM      C16F     CTL2    -0.180000       12.0110           0
     20500 MEMB     177      OSM      H16F     HAL2     0.900000E-01   1.00800           0
     20501 MEMB     177      OSM      H16G     HAL2     0.900000E-01   1.00800           0
     20502 MEMB     177      OSM      C17F     CTL2    -0.180000       12.0110           0
     20503 MEMB     177      OSM      H17F     HAL2     0.900000E-01   1.00800           0
     20504 MEMB     177      OSM      H17G     HAL2     0.900000E-01   1.00800           0
     20505 MEMB     177      OSM      C18F     CTL3    -0.270000       12.0110           0
     20506 MEMB     177      OSM      H18F     HAL3     0.900000E-01   1.00800           0
     20507 MEMB     177      OSM      H18G     HAL3     0.900000E-01   1.00800           0
     20508 MEMB     177      OSM      H18H     HAL3     0.900000E-01   1.00800           0
     20509 MEMB     178      SOPE     N        NH3L    -0.300000       14.0070           0
     20510 MEMB     178      SOPE     HN1      HCL      0.330000       1.00800           0
     20511 MEMB     178      SOPE     HN2      HCL      0.330000       1.00800           0
     20512 MEMB     178      SOPE     HN3      HCL      0.330000       1.00800           0
     20513 MEMB     178      SOPE     C12      CTL2     0.130000       12.0110           0
     20514 MEMB     178      SOPE     H12A     HAL2     0.900000E-01   1.00800           0
     20515 MEMB     178      SOPE     H12B     HAL2     0.900000E-01   1.00800           0
     20516 MEMB     178      SOPE     C11      CTL2    -0.800000E-01   12.0110           0
     20517 MEMB     178      SOPE     H11A     HAL2     0.900000E-01   1.00800           0
     20518 MEMB     178      SOPE     H11B     HAL2     0.900000E-01   1.00800           0
     20519 MEMB     178      SOPE     P        PL        1.50000       30.9740           0
     20520 MEMB     178      SOPE     O13      O2L     -0.780000       15.9994           0
     20521 MEMB     178      SOPE     O14      O2L     -0.780000       15.9994           0
     20522 MEMB     178      SOPE     O12      OSLP    -0.570000       15.9994           0
     20523 MEMB     178      SOPE     O11      OSLP    -0.570000       15.9994           0
     20524 MEMB     178      SOPE     C1       CTL2    -0.800000E-01   12.0110           0
     20525 MEMB     178      SOPE     HA       HAL2     0.900000E-01   1.00800           0
     20526 MEMB     178      SOPE     HB       HAL2     0.900000E-01   1.00800           0
     20527 MEMB     178      SOPE     C2       CTL1     0.170000       12.0110           0
     20528 MEMB     178      SOPE     HS       HAL1     0.900000E-01   1.00800           0
     20529 MEMB     178      SOPE     O21      OSL     -0.490000       15.9994           0
     20530 MEMB     178      SOPE     C21      CL       0.900000       12.0110           0
     20531 MEMB     178      SOPE     O22      OBL     -0.630000       15.9994           0
     20532 MEMB     178      SOPE     C22      CTL2    -0.220000       12.0110           0
     20533 MEMB     178      SOPE     H2R      HAL2     0.900000E-01   1.00800           0
     20534 MEMB     178      SOPE     H2S      HAL2     0.900000E-01   1.00800           0
     20535 MEMB     178      SOPE     C3       CTL2     0.800000E-01   12.0110           0
     20536 MEMB     178      SOPE     HX       HAL2     0.900000E-01   1.00800           0
     20537 MEMB     178      SOPE     HY       HAL2     0.900000E-01   1.00800           0
     20538 MEMB     178      SOPE     O31      OSL     -0.490000       15.9994           0
     20539 MEMB     178      SOPE     C31      CL       0.900000       12.0110           0
     20540 MEMB     178      SOPE     O32      OBL     -0.630000       15.9994           0
     20541 MEMB     178      SOPE     C32      CTL2    -0.220000       12.0110           0
     20542 MEMB     178      SOPE     H2X      HAL2     0.900000E-01   1.00800           0
     20543 MEMB     178      SOPE     H2Y      HAL2     0.900000E-01   1.00800           0
     20544 MEMB     178      SOPE     C23      CTL2    -0.180000       12.0110           0
     20545 MEMB     178      SOPE     H3R      HAL2     0.900000E-01   1.00800           0
     20546 MEMB     178      SOPE     H3S      HAL2     0.900000E-01   1.00800           0
     20547 MEMB     178      SOPE     C24      CTL2    -0.180000       12.0110           0
     20548 MEMB     178      SOPE     H4R      HAL2     0.900000E-01   1.00800           0
     20549 MEMB     178      SOPE     H4S      HAL2     0.900000E-01   1.00800           0
     20550 MEMB     178      SOPE     C25      CTL2    -0.180000       12.0110           0
     20551 MEMB     178      SOPE     H5R      HAL2     0.900000E-01   1.00800           0
     20552 MEMB     178      SOPE     H5S      HAL2     0.900000E-01   1.00800           0
     20553 MEMB     178      SOPE     C26      CTL2    -0.180000       12.0110           0
     20554 MEMB     178      SOPE     H6R      HAL2     0.900000E-01   1.00800           0
     20555 MEMB     178      SOPE     H6S      HAL2     0.900000E-01   1.00800           0
     20556 MEMB     178      SOPE     C27      CTL2    -0.180000       12.0110           0
     20557 MEMB     178      SOPE     H7R      HAL2     0.900000E-01   1.00800           0
     20558 MEMB     178      SOPE     H7S      HAL2     0.900000E-01   1.00800           0
     20559 MEMB     178      SOPE     C28      CTL2    -0.180000       12.0110           0
     20560 MEMB     178      SOPE     H8R      HAL2     0.900000E-01   1.00800           0
     20561 MEMB     178      SOPE     H8S      HAL2     0.900000E-01   1.00800           0
     20562 MEMB     178      SOPE     C29      CEL1    -0.150000       12.0110           0
     20563 MEMB     178      SOPE     H91      HEL1     0.150000       1.00800           0
     20564 MEMB     178      SOPE     C210     CEL1    -0.150000       12.0110           0
     20565 MEMB     178      SOPE     H101     HEL1     0.150000       1.00800           0
     20566 MEMB     178      SOPE     C211     CTL2    -0.180000       12.0110           0
     20567 MEMB     178      SOPE     H11R     HAL2     0.900000E-01   1.00800           0
     20568 MEMB     178      SOPE     H11S     HAL2     0.900000E-01   1.00800           0
     20569 MEMB     178      SOPE     C212     CTL2    -0.180000       12.0110           0
     20570 MEMB     178      SOPE     H12R     HAL2     0.900000E-01   1.00800           0
     20571 MEMB     178      SOPE     H12S     HAL2     0.900000E-01   1.00800           0
     20572 MEMB     178      SOPE     C213     CTL2    -0.180000       12.0110           0
     20573 MEMB     178      SOPE     H13R     HAL2     0.900000E-01   1.00800           0
     20574 MEMB     178      SOPE     H13S     HAL2     0.900000E-01   1.00800           0
     20575 MEMB     178      SOPE     C214     CTL2    -0.180000       12.0110           0
     20576 MEMB     178      SOPE     H14R     HAL2     0.900000E-01   1.00800           0
     20577 MEMB     178      SOPE     H14S     HAL2     0.900000E-01   1.00800           0
     20578 MEMB     178      SOPE     C215     CTL2    -0.180000       12.0110           0
     20579 MEMB     178      SOPE     H15R     HAL2     0.900000E-01   1.00800           0
     20580 MEMB     178      SOPE     H15S     HAL2     0.900000E-01   1.00800           0
     20581 MEMB     178      SOPE     C216     CTL2    -0.180000       12.0110           0
     20582 MEMB     178      SOPE     H16R     HAL2     0.900000E-01   1.00800           0
     20583 MEMB     178      SOPE     H16S     HAL2     0.900000E-01   1.00800           0
     20584 MEMB     178      SOPE     C217     CTL2    -0.180000       12.0110           0
     20585 MEMB     178      SOPE     H17R     HAL2     0.900000E-01   1.00800           0
     20586 MEMB     178      SOPE     H17S     HAL2     0.900000E-01   1.00800           0
     20587 MEMB     178      SOPE     C218     CTL3    -0.270000       12.0110           0
     20588 MEMB     178      SOPE     H18R     HAL3     0.900000E-01   1.00800           0
     20589 MEMB     178      SOPE     H18S     HAL3     0.900000E-01   1.00800           0
     20590 MEMB     178      SOPE     H18T     HAL3     0.900000E-01   1.00800           0
     20591 MEMB     178      SOPE     C33      CTL2    -0.180000       12.0110           0
     20592 MEMB     178      SOPE     H3X      HAL2     0.900000E-01   1.00800           0
     20593 MEMB     178      SOPE     H3Y      HAL2     0.900000E-01   1.00800           0
     20594 MEMB     178      SOPE     C34      CTL2    -0.180000       12.0110           0
     20595 MEMB     178      SOPE     H4X      HAL2     0.900000E-01   1.00800           0
     20596 MEMB     178      SOPE     H4Y      HAL2     0.900000E-01   1.00800           0
     20597 MEMB     178      SOPE     C35      CTL2    -0.180000       12.0110           0
     20598 MEMB     178      SOPE     H5X      HAL2     0.900000E-01   1.00800           0
     20599 MEMB     178      SOPE     H5Y      HAL2     0.900000E-01   1.00800           0
     20600 MEMB     178      SOPE     C36      CTL2    -0.180000       12.0110           0
     20601 MEMB     178      SOPE     H6X      HAL2     0.900000E-01   1.00800           0
     20602 MEMB     178      SOPE     H6Y      HAL2     0.900000E-01   1.00800           0
     20603 MEMB     178      SOPE     C37      CTL2    -0.180000       12.0110           0
     20604 MEMB     178      SOPE     H7X      HAL2     0.900000E-01   1.00800           0
     20605 MEMB     178      SOPE     H7Y      HAL2     0.900000E-01   1.00800           0
     20606 MEMB     178      SOPE     C38      CTL2    -0.180000       12.0110           0
     20607 MEMB     178      SOPE     H8X      HAL2     0.900000E-01   1.00800           0
     20608 MEMB     178      SOPE     H8Y      HAL2     0.900000E-01   1.00800           0
     20609 MEMB     178      SOPE     C39      CTL2    -0.180000       12.0110           0
     20610 MEMB     178      SOPE     H9X      HAL2     0.900000E-01   1.00800           0
     20611 MEMB     178      SOPE     H9Y      HAL2     0.900000E-01   1.00800           0
     20612 MEMB     178      SOPE     C310     CTL2    -0.180000       12.0110           0
     20613 MEMB     178      SOPE     H10X     HAL2     0.900000E-01   1.00800           0
     20614 MEMB     178      SOPE     H10Y     HAL2     0.900000E-01   1.00800           0
     20615 MEMB     178      SOPE     C311     CTL2    -0.180000       12.0110           0
     20616 MEMB     178      SOPE     H11X     HAL2     0.900000E-01   1.00800           0
     20617 MEMB     178      SOPE     H11Y     HAL2     0.900000E-01   1.00800           0
     20618 MEMB     178      SOPE     C312     CTL2    -0.180000       12.0110           0
     20619 MEMB     178      SOPE     H12X     HAL2     0.900000E-01   1.00800           0
     20620 MEMB     178      SOPE     H12Y     HAL2     0.900000E-01   1.00800           0
     20621 MEMB     178      SOPE     C313     CTL2    -0.180000       12.0110           0
     20622 MEMB     178      SOPE     H13X     HAL2     0.900000E-01   1.00800           0
     20623 MEMB     178      SOPE     H13Y     HAL2     0.900000E-01   1.00800           0
     20624 MEMB     178      SOPE     C314     CTL2    -0.180000       12.0110           0
     20625 MEMB     178      SOPE     H14X     HAL2     0.900000E-01   1.00800           0
     20626 MEMB     178      SOPE     H14Y     HAL2     0.900000E-01   1.00800           0
     20627 MEMB     178      SOPE     C315     CTL2    -0.180000       12.0110           0
     20628 MEMB     178      SOPE     H15X     HAL2     0.900000E-01   1.00800           0
     20629 MEMB     178      SOPE     H15Y     HAL2     0.900000E-01   1.00800           0
     20630 MEMB     178      SOPE     C316     CTL2    -0.180000       12.0110           0
     20631 MEMB     178      SOPE     H16X     HAL2     0.900000E-01   1.00800           0
     20632 MEMB     178      SOPE     H16Y     HAL2     0.900000E-01   1.00800           0
     20633 MEMB     178      SOPE     C317     CTL2    -0.180000       12.0110           0
     20634 MEMB     178      SOPE     H17X     HAL2     0.900000E-01   1.00800           0
     20635 MEMB     178      SOPE     H17Y     HAL2     0.900000E-01   1.00800           0
     20636 MEMB     178      SOPE     C318     CTL3    -0.270000       12.0110           0
     20637 MEMB     178      SOPE     H18X     HAL3     0.900000E-01   1.00800           0
     20638 MEMB     178      SOPE     H18Y     HAL3     0.900000E-01   1.00800           0
     20639 MEMB     178      SOPE     H18Z     HAL3     0.900000E-01   1.00800           0
     20640 MEMB     179      SLPC     N        NTL     -0.600000       14.0070           0
     20641 MEMB     179      SLPC     C13      CTL5    -0.350000       12.0110           0
     20642 MEMB     179      SLPC     H13A     HL       0.250000       1.00800           0
     20643 MEMB     179      SLPC     H13B     HL       0.250000       1.00800           0
     20644 MEMB     179      SLPC     H13C     HL       0.250000       1.00800           0
     20645 MEMB     179      SLPC     C14      CTL5    -0.350000       12.0110           0
     20646 MEMB     179      SLPC     H14A     HL       0.250000       1.00800           0
     20647 MEMB     179      SLPC     H14B     HL       0.250000       1.00800           0
     20648 MEMB     179      SLPC     H14C     HL       0.250000       1.00800           0
     20649 MEMB     179      SLPC     C15      CTL5    -0.350000       12.0110           0
     20650 MEMB     179      SLPC     H15A     HL       0.250000       1.00800           0
     20651 MEMB     179      SLPC     H15B     HL       0.250000       1.00800           0
     20652 MEMB     179      SLPC     H15C     HL       0.250000       1.00800           0
     20653 MEMB     179      SLPC     C12      CTL2    -0.100000       12.0110           0
     20654 MEMB     179      SLPC     H12A     HL       0.250000       1.00800           0
     20655 MEMB     179      SLPC     H12B     HL       0.250000       1.00800           0
     20656 MEMB     179      SLPC     C11      CTL2    -0.800000E-01   12.0110           0
     20657 MEMB     179      SLPC     H11A     HAL2     0.900000E-01   1.00800           0
     20658 MEMB     179      SLPC     H11B     HAL2     0.900000E-01   1.00800           0
     20659 MEMB     179      SLPC     P        PL        1.50000       30.9740           0
     20660 MEMB     179      SLPC     O13      O2L     -0.780000       15.9994           0
     20661 MEMB     179      SLPC     O14      O2L     -0.780000       15.9994           0
     20662 MEMB     179      SLPC     O12      OSLP    -0.570000       15.9994           0
     20663 MEMB     179      SLPC     O11      OSLP    -0.570000       15.9994           0
     20664 MEMB     179      SLPC     C1       CTL2    -0.800000E-01   12.0110           0
     20665 MEMB     179      SLPC     HA       HAL2     0.900000E-01   1.00800           0
     20666 MEMB     179      SLPC     HB       HAL2     0.900000E-01   1.00800           0
     20667 MEMB     179      SLPC     C2       CTL1     0.170000       12.0110           0
     20668 MEMB     179      SLPC     HS       HAL1     0.900000E-01   1.00800           0
     20669 MEMB     179      SLPC     O21      OSL     -0.490000       15.9994           0
     20670 MEMB     179      SLPC     C21      CL       0.900000       12.0110           0
     20671 MEMB     179      SLPC     O22      OBL     -0.630000       15.9994           0
     20672 MEMB     179      SLPC     C22      CTL2    -0.220000       12.0110           0
     20673 MEMB     179      SLPC     H2R      HAL2     0.900000E-01   1.00800           0
     20674 MEMB     179      SLPC     H2S      HAL2     0.900000E-01   1.00800           0
     20675 MEMB     179      SLPC     C3       CTL2     0.800000E-01   12.0110           0
     20676 MEMB     179      SLPC     HX       HAL2     0.900000E-01   1.00800           0
     20677 MEMB     179      SLPC     HY       HAL2     0.900000E-01   1.00800           0
     20678 MEMB     179      SLPC     O31      OSL     -0.490000       15.9994           0
     20679 MEMB     179      SLPC     C31      CL       0.900000       12.0110           0
     20680 MEMB     179      SLPC     O32      OBL     -0.630000       15.9994           0
     20681 MEMB     179      SLPC     C32      CTL2    -0.220000       12.0110           0
     20682 MEMB     179      SLPC     H2X      HAL2     0.900000E-01   1.00800           0
     20683 MEMB     179      SLPC     H2Y      HAL2     0.900000E-01   1.00800           0
     20684 MEMB     179      SLPC     C23      CTL2    -0.180000       12.0110           0
     20685 MEMB     179      SLPC     H3R      HAL2     0.900000E-01   1.00800           0
     20686 MEMB     179      SLPC     H3S      HAL2     0.900000E-01   1.00800           0
     20687 MEMB     179      SLPC     C24      CTL2    -0.180000       12.0110           0
     20688 MEMB     179      SLPC     H4R      HAL2     0.900000E-01   1.00800           0
     20689 MEMB     179      SLPC     H4S      HAL2     0.900000E-01   1.00800           0
     20690 MEMB     179      SLPC     C25      CTL2    -0.180000       12.0110           0
     20691 MEMB     179      SLPC     H5R      HAL2     0.900000E-01   1.00800           0
     20692 MEMB     179      SLPC     H5S      HAL2     0.900000E-01   1.00800           0
     20693 MEMB     179      SLPC     C26      CTL2    -0.180000       12.0110           0
     20694 MEMB     179      SLPC     H6R      HAL2     0.900000E-01   1.00800           0
     20695 MEMB     179      SLPC     H6S      HAL2     0.900000E-01   1.00800           0
     20696 MEMB     179      SLPC     C27      CTL2    -0.180000       12.0110           0
     20697 MEMB     179      SLPC     H7R      HAL2     0.900000E-01   1.00800           0
     20698 MEMB     179      SLPC     H7S      HAL2     0.900000E-01   1.00800           0
     20699 MEMB     179      SLPC     C28      CTL2    -0.180000       12.0110           0
     20700 MEMB     179      SLPC     H8R      HAL2     0.900000E-01   1.00800           0
     20701 MEMB     179      SLPC     H8S      HAL2     0.900000E-01   1.00800           0
     20702 MEMB     179      SLPC     C29      CEL1    -0.150000       12.0110           0
     20703 MEMB     179      SLPC     H9R      HEL1     0.150000       1.00800           0
     20704 MEMB     179      SLPC     C210     CEL1    -0.150000       12.0110           0
     20705 MEMB     179      SLPC     H10R     HEL1     0.150000       1.00800           0
     20706 MEMB     179      SLPC     C211     CTL2    -0.180000       12.0110           0
     20707 MEMB     179      SLPC     H11R     HAL2     0.900000E-01   1.00800           0
     20708 MEMB     179      SLPC     H11S     HAL2     0.900000E-01   1.00800           0
     20709 MEMB     179      SLPC     C212     CEL1    -0.150000       12.0110           0
     20710 MEMB     179      SLPC     H12R     HEL1     0.150000       1.00800           0
     20711 MEMB     179      SLPC     C213     CEL1    -0.150000       12.0110           0
     20712 MEMB     179      SLPC     H13R     HEL1     0.150000       1.00800           0
     20713 MEMB     179      SLPC     C214     CTL2    -0.180000       12.0110           0
     20714 MEMB     179      SLPC     H14R     HAL2     0.900000E-01   1.00800           0
     20715 MEMB     179      SLPC     H14S     HAL2     0.900000E-01   1.00800           0
     20716 MEMB     179      SLPC     C215     CTL2    -0.180000       12.0110           0
     20717 MEMB     179      SLPC     H15R     HAL2     0.900000E-01   1.00800           0
     20718 MEMB     179      SLPC     H15S     HAL2     0.900000E-01   1.00800           0
     20719 MEMB     179      SLPC     C216     CTL2    -0.180000       12.0110           0
     20720 MEMB     179      SLPC     H16R     HAL2     0.900000E-01   1.00800           0
     20721 MEMB     179      SLPC     H16S     HAL2     0.900000E-01   1.00800           0
     20722 MEMB     179      SLPC     C217     CTL2    -0.180000       12.0110           0
     20723 MEMB     179      SLPC     H17R     HAL2     0.900000E-01   1.00800           0
     20724 MEMB     179      SLPC     H17S     HAL2     0.900000E-01   1.00800           0
     20725 MEMB     179      SLPC     C218     CTL3    -0.270000       12.0110           0
     20726 MEMB     179      SLPC     H18R     HAL3     0.900000E-01   1.00800           0
     20727 MEMB     179      SLPC     H18S     HAL3     0.900000E-01   1.00800           0
     20728 MEMB     179      SLPC     H18T     HAL3     0.900000E-01   1.00800           0
     20729 MEMB     179      SLPC     C33      CTL2    -0.180000       12.0110           0
     20730 MEMB     179      SLPC     H3X      HAL2     0.900000E-01   1.00800           0
     20731 MEMB     179      SLPC     H3Y      HAL2     0.900000E-01   1.00800           0
     20732 MEMB     179      SLPC     C34      CTL2    -0.180000       12.0110           0
     20733 MEMB     179      SLPC     H4X      HAL2     0.900000E-01   1.00800           0
     20734 MEMB     179      SLPC     H4Y      HAL2     0.900000E-01   1.00800           0
     20735 MEMB     179      SLPC     C35      CTL2    -0.180000       12.0110           0
     20736 MEMB     179      SLPC     H5X      HAL2     0.900000E-01   1.00800           0
     20737 MEMB     179      SLPC     H5Y      HAL2     0.900000E-01   1.00800           0
     20738 MEMB     179      SLPC     C36      CTL2    -0.180000       12.0110           0
     20739 MEMB     179      SLPC     H6X      HAL2     0.900000E-01   1.00800           0
     20740 MEMB     179      SLPC     H6Y      HAL2     0.900000E-01   1.00800           0
     20741 MEMB     179      SLPC     C37      CTL2    -0.180000       12.0110           0
     20742 MEMB     179      SLPC     H7X      HAL2     0.900000E-01   1.00800           0
     20743 MEMB     179      SLPC     H7Y      HAL2     0.900000E-01   1.00800           0
     20744 MEMB     179      SLPC     C38      CTL2    -0.180000       12.0110           0
     20745 MEMB     179      SLPC     H8X      HAL2     0.900000E-01   1.00800           0
     20746 MEMB     179      SLPC     H8Y      HAL2     0.900000E-01   1.00800           0
     20747 MEMB     179      SLPC     C39      CTL2    -0.180000       12.0110           0
     20748 MEMB     179      SLPC     H9X      HAL2     0.900000E-01   1.00800           0
     20749 MEMB     179      SLPC     H9Y      HAL2     0.900000E-01   1.00800           0
     20750 MEMB     179      SLPC     C310     CTL2    -0.180000       12.0110           0
     20751 MEMB     179      SLPC     H10X     HAL2     0.900000E-01   1.00800           0
     20752 MEMB     179      SLPC     H10Y     HAL2     0.900000E-01   1.00800           0
     20753 MEMB     179      SLPC     C311     CTL2    -0.180000       12.0110           0
     20754 MEMB     179      SLPC     H11X     HAL2     0.900000E-01   1.00800           0
     20755 MEMB     179      SLPC     H11Y     HAL2     0.900000E-01   1.00800           0
     20756 MEMB     179      SLPC     C312     CTL2    -0.180000       12.0110           0
     20757 MEMB     179      SLPC     H12X     HAL2     0.900000E-01   1.00800           0
     20758 MEMB     179      SLPC     H12Y     HAL2     0.900000E-01   1.00800           0
     20759 MEMB     179      SLPC     C313     CTL2    -0.180000       12.0110           0
     20760 MEMB     179      SLPC     H13X     HAL2     0.900000E-01   1.00800           0
     20761 MEMB     179      SLPC     H13Y     HAL2     0.900000E-01   1.00800           0
     20762 MEMB     179      SLPC     C314     CTL2    -0.180000       12.0110           0
     20763 MEMB     179      SLPC     H14X     HAL2     0.900000E-01   1.00800           0
     20764 MEMB     179      SLPC     H14Y     HAL2     0.900000E-01   1.00800           0
     20765 MEMB     179      SLPC     C315     CTL2    -0.180000       12.0110           0
     20766 MEMB     179      SLPC     H15X     HAL2     0.900000E-01   1.00800           0
     20767 MEMB     179      SLPC     H15Y     HAL2     0.900000E-01   1.00800           0
     20768 MEMB     179      SLPC     C316     CTL2    -0.180000       12.0110           0
     20769 MEMB     179      SLPC     H16X     HAL2     0.900000E-01   1.00800           0
     20770 MEMB     179      SLPC     H16Y     HAL2     0.900000E-01   1.00800           0
     20771 MEMB     179      SLPC     C317     CTL2    -0.180000       12.0110           0
     20772 MEMB     179      SLPC     H17X     HAL2     0.900000E-01   1.00800           0
     20773 MEMB     179      SLPC     H17Y     HAL2     0.900000E-01   1.00800           0
     20774 MEMB     179      SLPC     C318     CTL3    -0.270000       12.0110           0
     20775 MEMB     179      SLPC     H18X     HAL3     0.900000E-01   1.00800           0
     20776 MEMB     179      SLPC     H18Y     HAL3     0.900000E-01   1.00800           0
     20777 MEMB     179      SLPC     H18Z     HAL3     0.900000E-01   1.00800           0
     20778 MEMB     180      CHL1     C3       CRL1     0.140000       12.0110           0
     20779 MEMB     180      CHL1     H3       HGA1     0.900000E-01   1.00800           0
     20780 MEMB     180      CHL1     O3       OHL     -0.660000       15.9994           0
     20781 MEMB     180      CHL1     H3'      HOL      0.430000       1.00800           0
     20782 MEMB     180      CHL1     C4       CRL2    -0.180000       12.0110           0
     20783 MEMB     180      CHL1     H4A      HGA2     0.900000E-01   1.00800           0
     20784 MEMB     180      CHL1     H4B      HGA2     0.900000E-01   1.00800           0
     20785 MEMB     180      CHL1     C5       CEL1      0.00000       12.0110           0
     20786 MEMB     180      CHL1     C6       CEL1    -0.150000       12.0110           0
     20787 MEMB     180      CHL1     H6       HEL1     0.150000       1.00800           0
     20788 MEMB     180      CHL1     C7       CRL2    -0.180000       12.0110           0
     20789 MEMB     180      CHL1     H7A      HGA2     0.900000E-01   1.00800           0
     20790 MEMB     180      CHL1     H7B      HGA2     0.900000E-01   1.00800           0
     20791 MEMB     180      CHL1     C8       CRL1    -0.900000E-01   12.0110           0
     20792 MEMB     180      CHL1     H8       HGA1     0.900000E-01   1.00800           0
     20793 MEMB     180      CHL1     C14      CRL1    -0.900000E-01   12.0110           0
     20794 MEMB     180      CHL1     H14      HGA1     0.900000E-01   1.00800           0
     20795 MEMB     180      CHL1     C15      CRL2    -0.180000       12.0110           0
     20796 MEMB     180      CHL1     H15A     HGA2     0.900000E-01   1.00800           0
     20797 MEMB     180      CHL1     H15B     HGA2     0.900000E-01   1.00800           0
     20798 MEMB     180      CHL1     C16      CRL2    -0.180000       12.0110           0
     20799 MEMB     180      CHL1     H16A     HGA2     0.900000E-01   1.00800           0
     20800 MEMB     180      CHL1     H16B     HGA2     0.900000E-01   1.00800           0
     20801 MEMB     180      CHL1     C17      CRL1    -0.900000E-01   12.0110           0
     20802 MEMB     180      CHL1     H17      HGA1     0.900000E-01   1.00800           0
     20803 MEMB     180      CHL1     C13      CRL1      0.00000       12.0110           0
     20804 MEMB     180      CHL1     C18      CTL3    -0.270000       12.0110           0
     20805 MEMB     180      CHL1     H18A     HAL3     0.900000E-01   1.00800           0
     20806 MEMB     180      CHL1     H18B     HAL3     0.900000E-01   1.00800           0
     20807 MEMB     180      CHL1     H18C     HAL3     0.900000E-01   1.00800           0
     20808 MEMB     180      CHL1     C12      CRL2    -0.180000       12.0110           0
     20809 MEMB     180      CHL1     H12A     HGA2     0.900000E-01   1.00800           0
     20810 MEMB     180      CHL1     H12B     HGA2     0.900000E-01   1.00800           0
     20811 MEMB     180      CHL1     C11      CRL2    -0.180000       12.0110           0
     20812 MEMB     180      CHL1     H11A     HGA2     0.900000E-01   1.00800           0
     20813 MEMB     180      CHL1     H11B     HGA2     0.900000E-01   1.00800           0
     20814 MEMB     180      CHL1     C9       CRL1    -0.900000E-01   12.0110           0
     20815 MEMB     180      CHL1     H9       HGA1     0.900000E-01   1.00800           0
     20816 MEMB     180      CHL1     C10      CRL1      0.00000       12.0110           0
     20817 MEMB     180      CHL1     C19      CTL3    -0.270000       12.0110           0
     20818 MEMB     180      CHL1     H19A     HAL3     0.900000E-01   1.00800           0
     20819 MEMB     180      CHL1     H19B     HAL3     0.900000E-01   1.00800           0
     20820 MEMB     180      CHL1     H19C     HAL3     0.900000E-01   1.00800           0
     20821 MEMB     180      CHL1     C1       CRL2    -0.180000       12.0110           0
     20822 MEMB     180      CHL1     H1A      HGA2     0.900000E-01   1.00800           0
     20823 MEMB     180      CHL1     H1B      HGA2     0.900000E-01   1.00800           0
     20824 MEMB     180      CHL1     C2       CRL2    -0.180000       12.0110           0
     20825 MEMB     180      CHL1     H2A      HGA2     0.900000E-01   1.00800           0
     20826 MEMB     180      CHL1     H2B      HGA2     0.900000E-01   1.00800           0
     20827 MEMB     180      CHL1     C20      CTL1    -0.900000E-01   12.0110           0
     20828 MEMB     180      CHL1     H20      HAL1     0.900000E-01   1.00800           0
     20829 MEMB     180      CHL1     C21      CTL3    -0.270000       12.0110           0
     20830 MEMB     180      CHL1     H21A     HAL3     0.900000E-01   1.00800           0
     20831 MEMB     180      CHL1     H21B     HAL3     0.900000E-01   1.00800           0
     20832 MEMB     180      CHL1     H21C     HAL3     0.900000E-01   1.00800           0
     20833 MEMB     180      CHL1     C22      CTL2    -0.180000       12.0110           0
     20834 MEMB     180      CHL1     H22A     HAL2     0.900000E-01   1.00800           0
     20835 MEMB     180      CHL1     H22B     HAL2     0.900000E-01   1.00800           0
     20836 MEMB     180      CHL1     C23      CTL2    -0.180000       12.0110           0
     20837 MEMB     180      CHL1     H23A     HAL2     0.900000E-01   1.00800           0
     20838 MEMB     180      CHL1     H23B     HAL2     0.900000E-01   1.00800           0
     20839 MEMB     180      CHL1     C24      CTL2    -0.180000       12.0110           0
     20840 MEMB     180      CHL1     H24A     HAL2     0.900000E-01   1.00800           0
     20841 MEMB     180      CHL1     H24B     HAL2     0.900000E-01   1.00800           0
     20842 MEMB     180      CHL1     C25      CTL1    -0.900000E-01   12.0110           0
     20843 MEMB     180      CHL1     H25      HAL1     0.900000E-01   1.00800           0
     20844 MEMB     180      CHL1     C26      CTL3    -0.270000       12.0110           0
     20845 MEMB     180      CHL1     H26A     HAL3     0.900000E-01   1.00800           0
     20846 MEMB     180      CHL1     H26B     HAL3     0.900000E-01   1.00800           0
     20847 MEMB     180      CHL1     H26C     HAL3     0.900000E-01   1.00800           0
     20848 MEMB     180      CHL1     C27      CTL3    -0.270000       12.0110           0
     20849 MEMB     180      CHL1     H27A     HAL3     0.900000E-01   1.00800           0
     20850 MEMB     180      CHL1     H27B     HAL3     0.900000E-01   1.00800           0
     20851 MEMB     180      CHL1     H27C     HAL3     0.900000E-01   1.00800           0
     20852 MEMB     181      SAPE     N        NH3L    -0.300000       14.0070           0
     20853 MEMB     181      SAPE     HN1      HCL      0.330000       1.00800           0
     20854 MEMB     181      SAPE     HN2      HCL      0.330000       1.00800           0
     20855 MEMB     181      SAPE     HN3      HCL      0.330000       1.00800           0
     20856 MEMB     181      SAPE     C12      CTL2     0.130000       12.0110           0
     20857 MEMB     181      SAPE     H12A     HAL2     0.900000E-01   1.00800           0
     20858 MEMB     181      SAPE     H12B     HAL2     0.900000E-01   1.00800           0
     20859 MEMB     181      SAPE     C11      CTL2    -0.800000E-01   12.0110           0
     20860 MEMB     181      SAPE     H11A     HAL2     0.900000E-01   1.00800           0
     20861 MEMB     181      SAPE     H11B     HAL2     0.900000E-01   1.00800           0
     20862 MEMB     181      SAPE     P        PL        1.50000       30.9740           0
     20863 MEMB     181      SAPE     O13      O2L     -0.780000       15.9994           0
     20864 MEMB     181      SAPE     O14      O2L     -0.780000       15.9994           0
     20865 MEMB     181      SAPE     O12      OSLP    -0.570000       15.9994           0
     20866 MEMB     181      SAPE     O11      OSLP    -0.570000       15.9994           0
     20867 MEMB     181      SAPE     C1       CTL2    -0.800000E-01   12.0110           0
     20868 MEMB     181      SAPE     HA       HAL2     0.900000E-01   1.00800           0
     20869 MEMB     181      SAPE     HB       HAL2     0.900000E-01   1.00800           0
     20870 MEMB     181      SAPE     C2       CTL1     0.170000       12.0110           0
     20871 MEMB     181      SAPE     HS       HAL1     0.900000E-01   1.00800           0
     20872 MEMB     181      SAPE     O21      OSL     -0.490000       15.9994           0
     20873 MEMB     181      SAPE     C21      CL       0.900000       12.0110           0
     20874 MEMB     181      SAPE     O22      OBL     -0.630000       15.9994           0
     20875 MEMB     181      SAPE     C22      CTL2    -0.220000       12.0110           0
     20876 MEMB     181      SAPE     H2R      HAL2     0.900000E-01   1.00800           0
     20877 MEMB     181      SAPE     H2S      HAL2     0.900000E-01   1.00800           0
     20878 MEMB     181      SAPE     C3       CTL2     0.800000E-01   12.0110           0
     20879 MEMB     181      SAPE     HX       HAL2     0.900000E-01   1.00800           0
     20880 MEMB     181      SAPE     HY       HAL2     0.900000E-01   1.00800           0
     20881 MEMB     181      SAPE     O31      OSL     -0.490000       15.9994           0
     20882 MEMB     181      SAPE     C31      CL       0.900000       12.0110           0
     20883 MEMB     181      SAPE     O32      OBL     -0.630000       15.9994           0
     20884 MEMB     181      SAPE     C32      CTL2    -0.220000       12.0110           0
     20885 MEMB     181      SAPE     H2X      HAL2     0.900000E-01   1.00800           0
     20886 MEMB     181      SAPE     H2Y      HAL2     0.900000E-01   1.00800           0
     20887 MEMB     181      SAPE     C23      CTL2    -0.180000       12.0110           0
     20888 MEMB     181      SAPE     H3R      HAL2     0.900000E-01   1.00800           0
     20889 MEMB     181      SAPE     H3S      HAL2     0.900000E-01   1.00800           0
     20890 MEMB     181      SAPE     C24      CTL2    -0.180000       12.0110           0
     20891 MEMB     181      SAPE     H4R      HAL2     0.900000E-01   1.00800           0
     20892 MEMB     181      SAPE     H4S      HAL2     0.900000E-01   1.00800           0
     20893 MEMB     181      SAPE     C25      CEL1    -0.150000       12.0110           0
     20894 MEMB     181      SAPE     H5R      HEL1     0.150000       1.00800           0
     20895 MEMB     181      SAPE     C26      CEL1    -0.150000       12.0110           0
     20896 MEMB     181      SAPE     H6R      HEL1     0.150000       1.00800           0
     20897 MEMB     181      SAPE     C27      CTL2    -0.180000       12.0110           0
     20898 MEMB     181      SAPE     H7R      HAL2     0.900000E-01   1.00800           0
     20899 MEMB     181      SAPE     H7S      HAL2     0.900000E-01   1.00800           0
     20900 MEMB     181      SAPE     C28      CEL1    -0.150000       12.0110           0
     20901 MEMB     181      SAPE     H8R      HEL1     0.150000       1.00800           0
     20902 MEMB     181      SAPE     C29      CEL1    -0.150000       12.0110           0
     20903 MEMB     181      SAPE     H9R      HEL1     0.150000       1.00800           0
     20904 MEMB     181      SAPE     C210     CTL2    -0.180000       12.0110           0
     20905 MEMB     181      SAPE     H10R     HAL2     0.900000E-01   1.00800           0
     20906 MEMB     181      SAPE     H10S     HAL2     0.900000E-01   1.00800           0
     20907 MEMB     181      SAPE     C211     CEL1    -0.150000       12.0110           0
     20908 MEMB     181      SAPE     H11R     HEL1     0.150000       1.00800           0
     20909 MEMB     181      SAPE     C212     CEL1    -0.150000       12.0110           0
     20910 MEMB     181      SAPE     H12R     HEL1     0.150000       1.00800           0
     20911 MEMB     181      SAPE     C213     CTL2    -0.180000       12.0110           0
     20912 MEMB     181      SAPE     H13R     HAL2     0.900000E-01   1.00800           0
     20913 MEMB     181      SAPE     H13S     HAL2     0.900000E-01   1.00800           0
     20914 MEMB     181      SAPE     C214     CEL1    -0.150000       12.0110           0
     20915 MEMB     181      SAPE     H14R     HEL1     0.150000       1.00800           0
     20916 MEMB     181      SAPE     C215     CEL1    -0.150000       12.0110           0
     20917 MEMB     181      SAPE     H15R     HEL1     0.150000       1.00800           0
     20918 MEMB     181      SAPE     C216     CTL2    -0.180000       12.0110           0
     20919 MEMB     181      SAPE     H16R     HAL2     0.900000E-01   1.00800           0
     20920 MEMB     181      SAPE     H16S     HAL2     0.900000E-01   1.00800           0
     20921 MEMB     181      SAPE     C217     CTL2    -0.180000       12.0110           0
     20922 MEMB     181      SAPE     H17R     HAL2     0.900000E-01   1.00800           0
     20923 MEMB     181      SAPE     H17S     HAL2     0.900000E-01   1.00800           0
     20924 MEMB     181      SAPE     C218     CTL2    -0.180000       12.0110           0
     20925 MEMB     181      SAPE     H18R     HAL2     0.900000E-01   1.00800           0
     20926 MEMB     181      SAPE     H18S     HAL2     0.900000E-01   1.00800           0
     20927 MEMB     181      SAPE     C219     CTL2    -0.180000       12.0110           0
     20928 MEMB     181      SAPE     H19R     HAL2     0.900000E-01   1.00800           0
     20929 MEMB     181      SAPE     H19S     HAL2     0.900000E-01   1.00800           0
     20930 MEMB     181      SAPE     C220     CTL3    -0.270000       12.0110           0
     20931 MEMB     181      SAPE     H20R     HAL3     0.900000E-01   1.00800           0
     20932 MEMB     181      SAPE     H20S     HAL3     0.900000E-01   1.00800           0
     20933 MEMB     181      SAPE     H20T     HAL3     0.900000E-01   1.00800           0
     20934 MEMB     181      SAPE     C33      CTL2    -0.180000       12.0110           0
     20935 MEMB     181      SAPE     H3X      HAL2     0.900000E-01   1.00800           0
     20936 MEMB     181      SAPE     H3Y      HAL2     0.900000E-01   1.00800           0
     20937 MEMB     181      SAPE     C34      CTL2    -0.180000       12.0110           0
     20938 MEMB     181      SAPE     H4X      HAL2     0.900000E-01   1.00800           0
     20939 MEMB     181      SAPE     H4Y      HAL2     0.900000E-01   1.00800           0
     20940 MEMB     181      SAPE     C35      CTL2    -0.180000       12.0110           0
     20941 MEMB     181      SAPE     H5X      HAL2     0.900000E-01   1.00800           0
     20942 MEMB     181      SAPE     H5Y      HAL2     0.900000E-01   1.00800           0
     20943 MEMB     181      SAPE     C36      CTL2    -0.180000       12.0110           0
     20944 MEMB     181      SAPE     H6X      HAL2     0.900000E-01   1.00800           0
     20945 MEMB     181      SAPE     H6Y      HAL2     0.900000E-01   1.00800           0
     20946 MEMB     181      SAPE     C37      CTL2    -0.180000       12.0110           0
     20947 MEMB     181      SAPE     H7X      HAL2     0.900000E-01   1.00800           0
     20948 MEMB     181      SAPE     H7Y      HAL2     0.900000E-01   1.00800           0
     20949 MEMB     181      SAPE     C38      CTL2    -0.180000       12.0110           0
     20950 MEMB     181      SAPE     H8X      HAL2     0.900000E-01   1.00800           0
     20951 MEMB     181      SAPE     H8Y      HAL2     0.900000E-01   1.00800           0
     20952 MEMB     181      SAPE     C39      CTL2    -0.180000       12.0110           0
     20953 MEMB     181      SAPE     H9X      HAL2     0.900000E-01   1.00800           0
     20954 MEMB     181      SAPE     H9Y      HAL2     0.900000E-01   1.00800           0
     20955 MEMB     181      SAPE     C310     CTL2    -0.180000       12.0110           0
     20956 MEMB     181      SAPE     H10X     HAL2     0.900000E-01   1.00800           0
     20957 MEMB     181      SAPE     H10Y     HAL2     0.900000E-01   1.00800           0
     20958 MEMB     181      SAPE     C311     CTL2    -0.180000       12.0110           0
     20959 MEMB     181      SAPE     H11X     HAL2     0.900000E-01   1.00800           0
     20960 MEMB     181      SAPE     H11Y     HAL2     0.900000E-01   1.00800           0
     20961 MEMB     181      SAPE     C312     CTL2    -0.180000       12.0110           0
     20962 MEMB     181      SAPE     H12X     HAL2     0.900000E-01   1.00800           0
     20963 MEMB     181      SAPE     H12Y     HAL2     0.900000E-01   1.00800           0
     20964 MEMB     181      SAPE     C313     CTL2    -0.180000       12.0110           0
     20965 MEMB     181      SAPE     H13X     HAL2     0.900000E-01   1.00800           0
     20966 MEMB     181      SAPE     H13Y     HAL2     0.900000E-01   1.00800           0
     20967 MEMB     181      SAPE     C314     CTL2    -0.180000       12.0110           0
     20968 MEMB     181      SAPE     H14X     HAL2     0.900000E-01   1.00800           0
     20969 MEMB     181      SAPE     H14Y     HAL2     0.900000E-01   1.00800           0
     20970 MEMB     181      SAPE     C315     CTL2    -0.180000       12.0110           0
     20971 MEMB     181      SAPE     H15X     HAL2     0.900000E-01   1.00800           0
     20972 MEMB     181      SAPE     H15Y     HAL2     0.900000E-01   1.00800           0
     20973 MEMB     181      SAPE     C316     CTL2    -0.180000       12.0110           0
     20974 MEMB     181      SAPE     H16X     HAL2     0.900000E-01   1.00800           0
     20975 MEMB     181      SAPE     H16Y     HAL2     0.900000E-01   1.00800           0
     20976 MEMB     181      SAPE     C317     CTL2    -0.180000       12.0110           0
     20977 MEMB     181      SAPE     H17X     HAL2     0.900000E-01   1.00800           0
     20978 MEMB     181      SAPE     H17Y     HAL2     0.900000E-01   1.00800           0
     20979 MEMB     181      SAPE     C318     CTL3    -0.270000       12.0110           0
     20980 MEMB     181      SAPE     H18X     HAL3     0.900000E-01   1.00800           0
     20981 MEMB     181      SAPE     H18Y     HAL3     0.900000E-01   1.00800           0
     20982 MEMB     181      SAPE     H18Z     HAL3     0.900000E-01   1.00800           0
     20983 MEMB     182      SAPE     N        NH3L    -0.300000       14.0070           0
     20984 MEMB     182      SAPE     HN1      HCL      0.330000       1.00800           0
     20985 MEMB     182      SAPE     HN2      HCL      0.330000       1.00800           0
     20986 MEMB     182      SAPE     HN3      HCL      0.330000       1.00800           0
     20987 MEMB     182      SAPE     C12      CTL2     0.130000       12.0110           0
     20988 MEMB     182      SAPE     H12A     HAL2     0.900000E-01   1.00800           0
     20989 MEMB     182      SAPE     H12B     HAL2     0.900000E-01   1.00800           0
     20990 MEMB     182      SAPE     C11      CTL2    -0.800000E-01   12.0110           0
     20991 MEMB     182      SAPE     H11A     HAL2     0.900000E-01   1.00800           0
     20992 MEMB     182      SAPE     H11B     HAL2     0.900000E-01   1.00800           0
     20993 MEMB     182      SAPE     P        PL        1.50000       30.9740           0
     20994 MEMB     182      SAPE     O13      O2L     -0.780000       15.9994           0
     20995 MEMB     182      SAPE     O14      O2L     -0.780000       15.9994           0
     20996 MEMB     182      SAPE     O12      OSLP    -0.570000       15.9994           0
     20997 MEMB     182      SAPE     O11      OSLP    -0.570000       15.9994           0
     20998 MEMB     182      SAPE     C1       CTL2    -0.800000E-01   12.0110           0
     20999 MEMB     182      SAPE     HA       HAL2     0.900000E-01   1.00800           0
     21000 MEMB     182      SAPE     HB       HAL2     0.900000E-01   1.00800           0
     21001 MEMB     182      SAPE     C2       CTL1     0.170000       12.0110           0
     21002 MEMB     182      SAPE     HS       HAL1     0.900000E-01   1.00800           0
     21003 MEMB     182      SAPE     O21      OSL     -0.490000       15.9994           0
     21004 MEMB     182      SAPE     C21      CL       0.900000       12.0110           0
     21005 MEMB     182      SAPE     O22      OBL     -0.630000       15.9994           0
     21006 MEMB     182      SAPE     C22      CTL2    -0.220000       12.0110           0
     21007 MEMB     182      SAPE     H2R      HAL2     0.900000E-01   1.00800           0
     21008 MEMB     182      SAPE     H2S      HAL2     0.900000E-01   1.00800           0
     21009 MEMB     182      SAPE     C3       CTL2     0.800000E-01   12.0110           0
     21010 MEMB     182      SAPE     HX       HAL2     0.900000E-01   1.00800           0
     21011 MEMB     182      SAPE     HY       HAL2     0.900000E-01   1.00800           0
     21012 MEMB     182      SAPE     O31      OSL     -0.490000       15.9994           0
     21013 MEMB     182      SAPE     C31      CL       0.900000       12.0110           0
     21014 MEMB     182      SAPE     O32      OBL     -0.630000       15.9994           0
     21015 MEMB     182      SAPE     C32      CTL2    -0.220000       12.0110           0
     21016 MEMB     182      SAPE     H2X      HAL2     0.900000E-01   1.00800           0
     21017 MEMB     182      SAPE     H2Y      HAL2     0.900000E-01   1.00800           0
     21018 MEMB     182      SAPE     C23      CTL2    -0.180000       12.0110           0
     21019 MEMB     182      SAPE     H3R      HAL2     0.900000E-01   1.00800           0
     21020 MEMB     182      SAPE     H3S      HAL2     0.900000E-01   1.00800           0
     21021 MEMB     182      SAPE     C24      CTL2    -0.180000       12.0110           0
     21022 MEMB     182      SAPE     H4R      HAL2     0.900000E-01   1.00800           0
     21023 MEMB     182      SAPE     H4S      HAL2     0.900000E-01   1.00800           0
     21024 MEMB     182      SAPE     C25      CEL1    -0.150000       12.0110           0
     21025 MEMB     182      SAPE     H5R      HEL1     0.150000       1.00800           0
     21026 MEMB     182      SAPE     C26      CEL1    -0.150000       12.0110           0
     21027 MEMB     182      SAPE     H6R      HEL1     0.150000       1.00800           0
     21028 MEMB     182      SAPE     C27      CTL2    -0.180000       12.0110           0
     21029 MEMB     182      SAPE     H7R      HAL2     0.900000E-01   1.00800           0
     21030 MEMB     182      SAPE     H7S      HAL2     0.900000E-01   1.00800           0
     21031 MEMB     182      SAPE     C28      CEL1    -0.150000       12.0110           0
     21032 MEMB     182      SAPE     H8R      HEL1     0.150000       1.00800           0
     21033 MEMB     182      SAPE     C29      CEL1    -0.150000       12.0110           0
     21034 MEMB     182      SAPE     H9R      HEL1     0.150000       1.00800           0
     21035 MEMB     182      SAPE     C210     CTL2    -0.180000       12.0110           0
     21036 MEMB     182      SAPE     H10R     HAL2     0.900000E-01   1.00800           0
     21037 MEMB     182      SAPE     H10S     HAL2     0.900000E-01   1.00800           0
     21038 MEMB     182      SAPE     C211     CEL1    -0.150000       12.0110           0
     21039 MEMB     182      SAPE     H11R     HEL1     0.150000       1.00800           0
     21040 MEMB     182      SAPE     C212     CEL1    -0.150000       12.0110           0
     21041 MEMB     182      SAPE     H12R     HEL1     0.150000       1.00800           0
     21042 MEMB     182      SAPE     C213     CTL2    -0.180000       12.0110           0
     21043 MEMB     182      SAPE     H13R     HAL2     0.900000E-01   1.00800           0
     21044 MEMB     182      SAPE     H13S     HAL2     0.900000E-01   1.00800           0
     21045 MEMB     182      SAPE     C214     CEL1    -0.150000       12.0110           0
     21046 MEMB     182      SAPE     H14R     HEL1     0.150000       1.00800           0
     21047 MEMB     182      SAPE     C215     CEL1    -0.150000       12.0110           0
     21048 MEMB     182      SAPE     H15R     HEL1     0.150000       1.00800           0
     21049 MEMB     182      SAPE     C216     CTL2    -0.180000       12.0110           0
     21050 MEMB     182      SAPE     H16R     HAL2     0.900000E-01   1.00800           0
     21051 MEMB     182      SAPE     H16S     HAL2     0.900000E-01   1.00800           0
     21052 MEMB     182      SAPE     C217     CTL2    -0.180000       12.0110           0
     21053 MEMB     182      SAPE     H17R     HAL2     0.900000E-01   1.00800           0
     21054 MEMB     182      SAPE     H17S     HAL2     0.900000E-01   1.00800           0
     21055 MEMB     182      SAPE     C218     CTL2    -0.180000       12.0110           0
     21056 MEMB     182      SAPE     H18R     HAL2     0.900000E-01   1.00800           0
     21057 MEMB     182      SAPE     H18S     HAL2     0.900000E-01   1.00800           0
     21058 MEMB     182      SAPE     C219     CTL2    -0.180000       12.0110           0
     21059 MEMB     182      SAPE     H19R     HAL2     0.900000E-01   1.00800           0
     21060 MEMB     182      SAPE     H19S     HAL2     0.900000E-01   1.00800           0
     21061 MEMB     182      SAPE     C220     CTL3    -0.270000       12.0110           0
     21062 MEMB     182      SAPE     H20R     HAL3     0.900000E-01   1.00800           0
     21063 MEMB     182      SAPE     H20S     HAL3     0.900000E-01   1.00800           0
     21064 MEMB     182      SAPE     H20T     HAL3     0.900000E-01   1.00800           0
     21065 MEMB     182      SAPE     C33      CTL2    -0.180000       12.0110           0
     21066 MEMB     182      SAPE     H3X      HAL2     0.900000E-01   1.00800           0
     21067 MEMB     182      SAPE     H3Y      HAL2     0.900000E-01   1.00800           0
     21068 MEMB     182      SAPE     C34      CTL2    -0.180000       12.0110           0
     21069 MEMB     182      SAPE     H4X      HAL2     0.900000E-01   1.00800           0
     21070 MEMB     182      SAPE     H4Y      HAL2     0.900000E-01   1.00800           0
     21071 MEMB     182      SAPE     C35      CTL2    -0.180000       12.0110           0
     21072 MEMB     182      SAPE     H5X      HAL2     0.900000E-01   1.00800           0
     21073 MEMB     182      SAPE     H5Y      HAL2     0.900000E-01   1.00800           0
     21074 MEMB     182      SAPE     C36      CTL2    -0.180000       12.0110           0
     21075 MEMB     182      SAPE     H6X      HAL2     0.900000E-01   1.00800           0
     21076 MEMB     182      SAPE     H6Y      HAL2     0.900000E-01   1.00800           0
     21077 MEMB     182      SAPE     C37      CTL2    -0.180000       12.0110           0
     21078 MEMB     182      SAPE     H7X      HAL2     0.900000E-01   1.00800           0
     21079 MEMB     182      SAPE     H7Y      HAL2     0.900000E-01   1.00800           0
     21080 MEMB     182      SAPE     C38      CTL2    -0.180000       12.0110           0
     21081 MEMB     182      SAPE     H8X      HAL2     0.900000E-01   1.00800           0
     21082 MEMB     182      SAPE     H8Y      HAL2     0.900000E-01   1.00800           0
     21083 MEMB     182      SAPE     C39      CTL2    -0.180000       12.0110           0
     21084 MEMB     182      SAPE     H9X      HAL2     0.900000E-01   1.00800           0
     21085 MEMB     182      SAPE     H9Y      HAL2     0.900000E-01   1.00800           0
     21086 MEMB     182      SAPE     C310     CTL2    -0.180000       12.0110           0
     21087 MEMB     182      SAPE     H10X     HAL2     0.900000E-01   1.00800           0
     21088 MEMB     182      SAPE     H10Y     HAL2     0.900000E-01   1.00800           0
     21089 MEMB     182      SAPE     C311     CTL2    -0.180000       12.0110           0
     21090 MEMB     182      SAPE     H11X     HAL2     0.900000E-01   1.00800           0
     21091 MEMB     182      SAPE     H11Y     HAL2     0.900000E-01   1.00800           0
     21092 MEMB     182      SAPE     C312     CTL2    -0.180000       12.0110           0
     21093 MEMB     182      SAPE     H12X     HAL2     0.900000E-01   1.00800           0
     21094 MEMB     182      SAPE     H12Y     HAL2     0.900000E-01   1.00800           0
     21095 MEMB     182      SAPE     C313     CTL2    -0.180000       12.0110           0
     21096 MEMB     182      SAPE     H13X     HAL2     0.900000E-01   1.00800           0
     21097 MEMB     182      SAPE     H13Y     HAL2     0.900000E-01   1.00800           0
     21098 MEMB     182      SAPE     C314     CTL2    -0.180000       12.0110           0
     21099 MEMB     182      SAPE     H14X     HAL2     0.900000E-01   1.00800           0
     21100 MEMB     182      SAPE     H14Y     HAL2     0.900000E-01   1.00800           0
     21101 MEMB     182      SAPE     C315     CTL2    -0.180000       12.0110           0
     21102 MEMB     182      SAPE     H15X     HAL2     0.900000E-01   1.00800           0
     21103 MEMB     182      SAPE     H15Y     HAL2     0.900000E-01   1.00800           0
     21104 MEMB     182      SAPE     C316     CTL2    -0.180000       12.0110           0
     21105 MEMB     182      SAPE     H16X     HAL2     0.900000E-01   1.00800           0
     21106 MEMB     182      SAPE     H16Y     HAL2     0.900000E-01   1.00800           0
     21107 MEMB     182      SAPE     C317     CTL2    -0.180000       12.0110           0
     21108 MEMB     182      SAPE     H17X     HAL2     0.900000E-01   1.00800           0
     21109 MEMB     182      SAPE     H17Y     HAL2     0.900000E-01   1.00800           0
     21110 MEMB     182      SAPE     C318     CTL3    -0.270000       12.0110           0
     21111 MEMB     182      SAPE     H18X     HAL3     0.900000E-01   1.00800           0
     21112 MEMB     182      SAPE     H18Y     HAL3     0.900000E-01   1.00800           0
     21113 MEMB     182      SAPE     H18Z     HAL3     0.900000E-01   1.00800           0
     21114 MEMB     183      CHL1     C3       CRL1     0.140000       12.0110           0
     21115 MEMB     183      CHL1     H3       HGA1     0.900000E-01   1.00800           0
     21116 MEMB     183      CHL1     O3       OHL     -0.660000       15.9994           0
     21117 MEMB     183      CHL1     H3'      HOL      0.430000       1.00800           0
     21118 MEMB     183      CHL1     C4       CRL2    -0.180000       12.0110           0
     21119 MEMB     183      CHL1     H4A      HGA2     0.900000E-01   1.00800           0
     21120 MEMB     183      CHL1     H4B      HGA2     0.900000E-01   1.00800           0
     21121 MEMB     183      CHL1     C5       CEL1      0.00000       12.0110           0
     21122 MEMB     183      CHL1     C6       CEL1    -0.150000       12.0110           0
     21123 MEMB     183      CHL1     H6       HEL1     0.150000       1.00800           0
     21124 MEMB     183      CHL1     C7       CRL2    -0.180000       12.0110           0
     21125 MEMB     183      CHL1     H7A      HGA2     0.900000E-01   1.00800           0
     21126 MEMB     183      CHL1     H7B      HGA2     0.900000E-01   1.00800           0
     21127 MEMB     183      CHL1     C8       CRL1    -0.900000E-01   12.0110           0
     21128 MEMB     183      CHL1     H8       HGA1     0.900000E-01   1.00800           0
     21129 MEMB     183      CHL1     C14      CRL1    -0.900000E-01   12.0110           0
     21130 MEMB     183      CHL1     H14      HGA1     0.900000E-01   1.00800           0
     21131 MEMB     183      CHL1     C15      CRL2    -0.180000       12.0110           0
     21132 MEMB     183      CHL1     H15A     HGA2     0.900000E-01   1.00800           0
     21133 MEMB     183      CHL1     H15B     HGA2     0.900000E-01   1.00800           0
     21134 MEMB     183      CHL1     C16      CRL2    -0.180000       12.0110           0
     21135 MEMB     183      CHL1     H16A     HGA2     0.900000E-01   1.00800           0
     21136 MEMB     183      CHL1     H16B     HGA2     0.900000E-01   1.00800           0
     21137 MEMB     183      CHL1     C17      CRL1    -0.900000E-01   12.0110           0
     21138 MEMB     183      CHL1     H17      HGA1     0.900000E-01   1.00800           0
     21139 MEMB     183      CHL1     C13      CRL1      0.00000       12.0110           0
     21140 MEMB     183      CHL1     C18      CTL3    -0.270000       12.0110           0
     21141 MEMB     183      CHL1     H18A     HAL3     0.900000E-01   1.00800           0
     21142 MEMB     183      CHL1     H18B     HAL3     0.900000E-01   1.00800           0
     21143 MEMB     183      CHL1     H18C     HAL3     0.900000E-01   1.00800           0
     21144 MEMB     183      CHL1     C12      CRL2    -0.180000       12.0110           0
     21145 MEMB     183      CHL1     H12A     HGA2     0.900000E-01   1.00800           0
     21146 MEMB     183      CHL1     H12B     HGA2     0.900000E-01   1.00800           0
     21147 MEMB     183      CHL1     C11      CRL2    -0.180000       12.0110           0
     21148 MEMB     183      CHL1     H11A     HGA2     0.900000E-01   1.00800           0
     21149 MEMB     183      CHL1     H11B     HGA2     0.900000E-01   1.00800           0
     21150 MEMB     183      CHL1     C9       CRL1    -0.900000E-01   12.0110           0
     21151 MEMB     183      CHL1     H9       HGA1     0.900000E-01   1.00800           0
     21152 MEMB     183      CHL1     C10      CRL1      0.00000       12.0110           0
     21153 MEMB     183      CHL1     C19      CTL3    -0.270000       12.0110           0
     21154 MEMB     183      CHL1     H19A     HAL3     0.900000E-01   1.00800           0
     21155 MEMB     183      CHL1     H19B     HAL3     0.900000E-01   1.00800           0
     21156 MEMB     183      CHL1     H19C     HAL3     0.900000E-01   1.00800           0
     21157 MEMB     183      CHL1     C1       CRL2    -0.180000       12.0110           0
     21158 MEMB     183      CHL1     H1A      HGA2     0.900000E-01   1.00800           0
     21159 MEMB     183      CHL1     H1B      HGA2     0.900000E-01   1.00800           0
     21160 MEMB     183      CHL1     C2       CRL2    -0.180000       12.0110           0
     21161 MEMB     183      CHL1     H2A      HGA2     0.900000E-01   1.00800           0
     21162 MEMB     183      CHL1     H2B      HGA2     0.900000E-01   1.00800           0
     21163 MEMB     183      CHL1     C20      CTL1    -0.900000E-01   12.0110           0
     21164 MEMB     183      CHL1     H20      HAL1     0.900000E-01   1.00800           0
     21165 MEMB     183      CHL1     C21      CTL3    -0.270000       12.0110           0
     21166 MEMB     183      CHL1     H21A     HAL3     0.900000E-01   1.00800           0
     21167 MEMB     183      CHL1     H21B     HAL3     0.900000E-01   1.00800           0
     21168 MEMB     183      CHL1     H21C     HAL3     0.900000E-01   1.00800           0
     21169 MEMB     183      CHL1     C22      CTL2    -0.180000       12.0110           0
     21170 MEMB     183      CHL1     H22A     HAL2     0.900000E-01   1.00800           0
     21171 MEMB     183      CHL1     H22B     HAL2     0.900000E-01   1.00800           0
     21172 MEMB     183      CHL1     C23      CTL2    -0.180000       12.0110           0
     21173 MEMB     183      CHL1     H23A     HAL2     0.900000E-01   1.00800           0
     21174 MEMB     183      CHL1     H23B     HAL2     0.900000E-01   1.00800           0
     21175 MEMB     183      CHL1     C24      CTL2    -0.180000       12.0110           0
     21176 MEMB     183      CHL1     H24A     HAL2     0.900000E-01   1.00800           0
     21177 MEMB     183      CHL1     H24B     HAL2     0.900000E-01   1.00800           0
     21178 MEMB     183      CHL1     C25      CTL1    -0.900000E-01   12.0110           0
     21179 MEMB     183      CHL1     H25      HAL1     0.900000E-01   1.00800           0
     21180 MEMB     183      CHL1     C26      CTL3    -0.270000       12.0110           0
     21181 MEMB     183      CHL1     H26A     HAL3     0.900000E-01   1.00800           0
     21182 MEMB     183      CHL1     H26B     HAL3     0.900000E-01   1.00800           0
     21183 MEMB     183      CHL1     H26C     HAL3     0.900000E-01   1.00800           0
     21184 MEMB     183      CHL1     C27      CTL3    -0.270000       12.0110           0
     21185 MEMB     183      CHL1     H27A     HAL3     0.900000E-01   1.00800           0
     21186 MEMB     183      CHL1     H27B     HAL3     0.900000E-01   1.00800           0
     21187 MEMB     183      CHL1     H27C     HAL3     0.900000E-01   1.00800           0
     21188 MEMB     184      SAPE     N        NH3L    -0.300000       14.0070           0
     21189 MEMB     184      SAPE     HN1      HCL      0.330000       1.00800           0
     21190 MEMB     184      SAPE     HN2      HCL      0.330000       1.00800           0
     21191 MEMB     184      SAPE     HN3      HCL      0.330000       1.00800           0
     21192 MEMB     184      SAPE     C12      CTL2     0.130000       12.0110           0
     21193 MEMB     184      SAPE     H12A     HAL2     0.900000E-01   1.00800           0
     21194 MEMB     184      SAPE     H12B     HAL2     0.900000E-01   1.00800           0
     21195 MEMB     184      SAPE     C11      CTL2    -0.800000E-01   12.0110           0
     21196 MEMB     184      SAPE     H11A     HAL2     0.900000E-01   1.00800           0
     21197 MEMB     184      SAPE     H11B     HAL2     0.900000E-01   1.00800           0
     21198 MEMB     184      SAPE     P        PL        1.50000       30.9740           0
     21199 MEMB     184      SAPE     O13      O2L     -0.780000       15.9994           0
     21200 MEMB     184      SAPE     O14      O2L     -0.780000       15.9994           0
     21201 MEMB     184      SAPE     O12      OSLP    -0.570000       15.9994           0
     21202 MEMB     184      SAPE     O11      OSLP    -0.570000       15.9994           0
     21203 MEMB     184      SAPE     C1       CTL2    -0.800000E-01   12.0110           0
     21204 MEMB     184      SAPE     HA       HAL2     0.900000E-01   1.00800           0
     21205 MEMB     184      SAPE     HB       HAL2     0.900000E-01   1.00800           0
     21206 MEMB     184      SAPE     C2       CTL1     0.170000       12.0110           0
     21207 MEMB     184      SAPE     HS       HAL1     0.900000E-01   1.00800           0
     21208 MEMB     184      SAPE     O21      OSL     -0.490000       15.9994           0
     21209 MEMB     184      SAPE     C21      CL       0.900000       12.0110           0
     21210 MEMB     184      SAPE     O22      OBL     -0.630000       15.9994           0
     21211 MEMB     184      SAPE     C22      CTL2    -0.220000       12.0110           0
     21212 MEMB     184      SAPE     H2R      HAL2     0.900000E-01   1.00800           0
     21213 MEMB     184      SAPE     H2S      HAL2     0.900000E-01   1.00800           0
     21214 MEMB     184      SAPE     C3       CTL2     0.800000E-01   12.0110           0
     21215 MEMB     184      SAPE     HX       HAL2     0.900000E-01   1.00800           0
     21216 MEMB     184      SAPE     HY       HAL2     0.900000E-01   1.00800           0
     21217 MEMB     184      SAPE     O31      OSL     -0.490000       15.9994           0
     21218 MEMB     184      SAPE     C31      CL       0.900000       12.0110           0
     21219 MEMB     184      SAPE     O32      OBL     -0.630000       15.9994           0
     21220 MEMB     184      SAPE     C32      CTL2    -0.220000       12.0110           0
     21221 MEMB     184      SAPE     H2X      HAL2     0.900000E-01   1.00800           0
     21222 MEMB     184      SAPE     H2Y      HAL2     0.900000E-01   1.00800           0
     21223 MEMB     184      SAPE     C23      CTL2    -0.180000       12.0110           0
     21224 MEMB     184      SAPE     H3R      HAL2     0.900000E-01   1.00800           0
     21225 MEMB     184      SAPE     H3S      HAL2     0.900000E-01   1.00800           0
     21226 MEMB     184      SAPE     C24      CTL2    -0.180000       12.0110           0
     21227 MEMB     184      SAPE     H4R      HAL2     0.900000E-01   1.00800           0
     21228 MEMB     184      SAPE     H4S      HAL2     0.900000E-01   1.00800           0
     21229 MEMB     184      SAPE     C25      CEL1    -0.150000       12.0110           0
     21230 MEMB     184      SAPE     H5R      HEL1     0.150000       1.00800           0
     21231 MEMB     184      SAPE     C26      CEL1    -0.150000       12.0110           0
     21232 MEMB     184      SAPE     H6R      HEL1     0.150000       1.00800           0
     21233 MEMB     184      SAPE     C27      CTL2    -0.180000       12.0110           0
     21234 MEMB     184      SAPE     H7R      HAL2     0.900000E-01   1.00800           0
     21235 MEMB     184      SAPE     H7S      HAL2     0.900000E-01   1.00800           0
     21236 MEMB     184      SAPE     C28      CEL1    -0.150000       12.0110           0
     21237 MEMB     184      SAPE     H8R      HEL1     0.150000       1.00800           0
     21238 MEMB     184      SAPE     C29      CEL1    -0.150000       12.0110           0
     21239 MEMB     184      SAPE     H9R      HEL1     0.150000       1.00800           0
     21240 MEMB     184      SAPE     C210     CTL2    -0.180000       12.0110           0
     21241 MEMB     184      SAPE     H10R     HAL2     0.900000E-01   1.00800           0
     21242 MEMB     184      SAPE     H10S     HAL2     0.900000E-01   1.00800           0
     21243 MEMB     184      SAPE     C211     CEL1    -0.150000       12.0110           0
     21244 MEMB     184      SAPE     H11R     HEL1     0.150000       1.00800           0
     21245 MEMB     184      SAPE     C212     CEL1    -0.150000       12.0110           0
     21246 MEMB     184      SAPE     H12R     HEL1     0.150000       1.00800           0
     21247 MEMB     184      SAPE     C213     CTL2    -0.180000       12.0110           0
     21248 MEMB     184      SAPE     H13R     HAL2     0.900000E-01   1.00800           0
     21249 MEMB     184      SAPE     H13S     HAL2     0.900000E-01   1.00800           0
     21250 MEMB     184      SAPE     C214     CEL1    -0.150000       12.0110           0
     21251 MEMB     184      SAPE     H14R     HEL1     0.150000       1.00800           0
     21252 MEMB     184      SAPE     C215     CEL1    -0.150000       12.0110           0
     21253 MEMB     184      SAPE     H15R     HEL1     0.150000       1.00800           0
     21254 MEMB     184      SAPE     C216     CTL2    -0.180000       12.0110           0
     21255 MEMB     184      SAPE     H16R     HAL2     0.900000E-01   1.00800           0
     21256 MEMB     184      SAPE     H16S     HAL2     0.900000E-01   1.00800           0
     21257 MEMB     184      SAPE     C217     CTL2    -0.180000       12.0110           0
     21258 MEMB     184      SAPE     H17R     HAL2     0.900000E-01   1.00800           0
     21259 MEMB     184      SAPE     H17S     HAL2     0.900000E-01   1.00800           0
     21260 MEMB     184      SAPE     C218     CTL2    -0.180000       12.0110           0
     21261 MEMB     184      SAPE     H18R     HAL2     0.900000E-01   1.00800           0
     21262 MEMB     184      SAPE     H18S     HAL2     0.900000E-01   1.00800           0
     21263 MEMB     184      SAPE     C219     CTL2    -0.180000       12.0110           0
     21264 MEMB     184      SAPE     H19R     HAL2     0.900000E-01   1.00800           0
     21265 MEMB     184      SAPE     H19S     HAL2     0.900000E-01   1.00800           0
     21266 MEMB     184      SAPE     C220     CTL3    -0.270000       12.0110           0
     21267 MEMB     184      SAPE     H20R     HAL3     0.900000E-01   1.00800           0
     21268 MEMB     184      SAPE     H20S     HAL3     0.900000E-01   1.00800           0
     21269 MEMB     184      SAPE     H20T     HAL3     0.900000E-01   1.00800           0
     21270 MEMB     184      SAPE     C33      CTL2    -0.180000       12.0110           0
     21271 MEMB     184      SAPE     H3X      HAL2     0.900000E-01   1.00800           0
     21272 MEMB     184      SAPE     H3Y      HAL2     0.900000E-01   1.00800           0
     21273 MEMB     184      SAPE     C34      CTL2    -0.180000       12.0110           0
     21274 MEMB     184      SAPE     H4X      HAL2     0.900000E-01   1.00800           0
     21275 MEMB     184      SAPE     H4Y      HAL2     0.900000E-01   1.00800           0
     21276 MEMB     184      SAPE     C35      CTL2    -0.180000       12.0110           0
     21277 MEMB     184      SAPE     H5X      HAL2     0.900000E-01   1.00800           0
     21278 MEMB     184      SAPE     H5Y      HAL2     0.900000E-01   1.00800           0
     21279 MEMB     184      SAPE     C36      CTL2    -0.180000       12.0110           0
     21280 MEMB     184      SAPE     H6X      HAL2     0.900000E-01   1.00800           0
     21281 MEMB     184      SAPE     H6Y      HAL2     0.900000E-01   1.00800           0
     21282 MEMB     184      SAPE     C37      CTL2    -0.180000       12.0110           0
     21283 MEMB     184      SAPE     H7X      HAL2     0.900000E-01   1.00800           0
     21284 MEMB     184      SAPE     H7Y      HAL2     0.900000E-01   1.00800           0
     21285 MEMB     184      SAPE     C38      CTL2    -0.180000       12.0110           0
     21286 MEMB     184      SAPE     H8X      HAL2     0.900000E-01   1.00800           0
     21287 MEMB     184      SAPE     H8Y      HAL2     0.900000E-01   1.00800           0
     21288 MEMB     184      SAPE     C39      CTL2    -0.180000       12.0110           0
     21289 MEMB     184      SAPE     H9X      HAL2     0.900000E-01   1.00800           0
     21290 MEMB     184      SAPE     H9Y      HAL2     0.900000E-01   1.00800           0
     21291 MEMB     184      SAPE     C310     CTL2    -0.180000       12.0110           0
     21292 MEMB     184      SAPE     H10X     HAL2     0.900000E-01   1.00800           0
     21293 MEMB     184      SAPE     H10Y     HAL2     0.900000E-01   1.00800           0
     21294 MEMB     184      SAPE     C311     CTL2    -0.180000       12.0110           0
     21295 MEMB     184      SAPE     H11X     HAL2     0.900000E-01   1.00800           0
     21296 MEMB     184      SAPE     H11Y     HAL2     0.900000E-01   1.00800           0
     21297 MEMB     184      SAPE     C312     CTL2    -0.180000       12.0110           0
     21298 MEMB     184      SAPE     H12X     HAL2     0.900000E-01   1.00800           0
     21299 MEMB     184      SAPE     H12Y     HAL2     0.900000E-01   1.00800           0
     21300 MEMB     184      SAPE     C313     CTL2    -0.180000       12.0110           0
     21301 MEMB     184      SAPE     H13X     HAL2     0.900000E-01   1.00800           0
     21302 MEMB     184      SAPE     H13Y     HAL2     0.900000E-01   1.00800           0
     21303 MEMB     184      SAPE     C314     CTL2    -0.180000       12.0110           0
     21304 MEMB     184      SAPE     H14X     HAL2     0.900000E-01   1.00800           0
     21305 MEMB     184      SAPE     H14Y     HAL2     0.900000E-01   1.00800           0
     21306 MEMB     184      SAPE     C315     CTL2    -0.180000       12.0110           0
     21307 MEMB     184      SAPE     H15X     HAL2     0.900000E-01   1.00800           0
     21308 MEMB     184      SAPE     H15Y     HAL2     0.900000E-01   1.00800           0
     21309 MEMB     184      SAPE     C316     CTL2    -0.180000       12.0110           0
     21310 MEMB     184      SAPE     H16X     HAL2     0.900000E-01   1.00800           0
     21311 MEMB     184      SAPE     H16Y     HAL2     0.900000E-01   1.00800           0
     21312 MEMB     184      SAPE     C317     CTL2    -0.180000       12.0110           0
     21313 MEMB     184      SAPE     H17X     HAL2     0.900000E-01   1.00800           0
     21314 MEMB     184      SAPE     H17Y     HAL2     0.900000E-01   1.00800           0
     21315 MEMB     184      SAPE     C318     CTL3    -0.270000       12.0110           0
     21316 MEMB     184      SAPE     H18X     HAL3     0.900000E-01   1.00800           0
     21317 MEMB     184      SAPE     H18Y     HAL3     0.900000E-01   1.00800           0
     21318 MEMB     184      SAPE     H18Z     HAL3     0.900000E-01   1.00800           0
     21319 MEMB     185      OSM      N        NTL     -0.600000       14.0070           0
     21320 MEMB     185      OSM      C15      CTL5    -0.350000       12.0110           0
     21321 MEMB     185      OSM      H15A     HL       0.250000       1.00800           0
     21322 MEMB     185      OSM      H15B     HL       0.250000       1.00800           0
     21323 MEMB     185      OSM      H15C     HL       0.250000       1.00800           0
     21324 MEMB     185      OSM      C14      CTL5    -0.350000       12.0110           0
     21325 MEMB     185      OSM      H14A     HL       0.250000       1.00800           0
     21326 MEMB     185      OSM      H14B     HL       0.250000       1.00800           0
     21327 MEMB     185      OSM      H14C     HL       0.250000       1.00800           0
     21328 MEMB     185      OSM      C13      CTL5    -0.350000       12.0110           0
     21329 MEMB     185      OSM      H13A     HL       0.250000       1.00800           0
     21330 MEMB     185      OSM      H13B     HL       0.250000       1.00800           0
     21331 MEMB     185      OSM      H13C     HL       0.250000       1.00800           0
     21332 MEMB     185      OSM      C12      CTL2    -0.100000       12.0110           0
     21333 MEMB     185      OSM      H12A     HL       0.250000       1.00800           0
     21334 MEMB     185      OSM      H12B     HL       0.250000       1.00800           0
     21335 MEMB     185      OSM      C11      CTL2    -0.800000E-01   12.0110           0
     21336 MEMB     185      OSM      H11A     HAL2     0.900000E-01   1.00800           0
     21337 MEMB     185      OSM      H11B     HAL2     0.900000E-01   1.00800           0
     21338 MEMB     185      OSM      P        PL        1.50000       30.9740           0
     21339 MEMB     185      OSM      O13      O2L     -0.780000       15.9994           0
     21340 MEMB     185      OSM      O14      O2L     -0.780000       15.9994           0
     21341 MEMB     185      OSM      O11      OSLP    -0.570000       15.9994           0
     21342 MEMB     185      OSM      O12      OSLP    -0.570000       15.9994           0
     21343 MEMB     185      OSM      C1S      CTL2    -0.800000E-01   12.0110           0
     21344 MEMB     185      OSM      H1S      HAL2     0.900000E-01   1.00800           0
     21345 MEMB     185      OSM      H1T      HAL2     0.900000E-01   1.00800           0
     21346 MEMB     185      OSM      NF       NHL     -0.700000       14.0070           0
     21347 MEMB     185      OSM      HNF      H        0.350000       1.00800           0
     21348 MEMB     185      OSM      C2S      CTL1     0.300000       12.0110           0
     21349 MEMB     185      OSM      H2S      HAL1     0.500000E-01   1.00800           0
     21350 MEMB     185      OSM      C3S      CTO1     0.500000       12.0110           0
     21351 MEMB     185      OSM      H3S      HAL1    -0.110000       1.00800           0
     21352 MEMB     185      OSM      O3       OHL     -0.690000       15.9994           0
     21353 MEMB     185      OSM      HO3      HOL      0.300000       1.00800           0
     21354 MEMB     185      OSM      C4S      CEL3    -0.150000       12.0110           0
     21355 MEMB     185      OSM      H4S      HEL1     0.150000       1.00800           0
     21356 MEMB     185      OSM      C5S      CEL3    -0.150000       12.0110           0
     21357 MEMB     185      OSM      H5S      HEL1     0.150000       1.00800           0
     21358 MEMB     185      OSM      C6S      CTL2    -0.180000       12.0110           0
     21359 MEMB     185      OSM      H6S      HAL2     0.900000E-01   1.00800           0
     21360 MEMB     185      OSM      H6T      HAL2     0.900000E-01   1.00800           0
     21361 MEMB     185      OSM      C7S      CTL2    -0.180000       12.0110           0
     21362 MEMB     185      OSM      H7S      HAL2     0.900000E-01   1.00800           0
     21363 MEMB     185      OSM      H7T      HAL2     0.900000E-01   1.00800           0
     21364 MEMB     185      OSM      C8S      CTL2    -0.180000       12.0110           0
     21365 MEMB     185      OSM      H8S      HAL2     0.900000E-01   1.00800           0
     21366 MEMB     185      OSM      H8T      HAL2     0.900000E-01   1.00800           0
     21367 MEMB     185      OSM      C9S      CTL2    -0.180000       12.0110           0
     21368 MEMB     185      OSM      H9S      HAL2     0.900000E-01   1.00800           0
     21369 MEMB     185      OSM      H9T      HAL2     0.900000E-01   1.00800           0
     21370 MEMB     185      OSM      C10S     CTL2    -0.180000       12.0110           0
     21371 MEMB     185      OSM      H10S     HAL2     0.900000E-01   1.00800           0
     21372 MEMB     185      OSM      H10T     HAL2     0.900000E-01   1.00800           0
     21373 MEMB     185      OSM      C11S     CTL2    -0.180000       12.0110           0
     21374 MEMB     185      OSM      H11S     HAL2     0.900000E-01   1.00800           0
     21375 MEMB     185      OSM      H11T     HAL2     0.900000E-01   1.00800           0
     21376 MEMB     185      OSM      C12S     CTL2    -0.180000       12.0110           0
     21377 MEMB     185      OSM      H12S     HAL2     0.900000E-01   1.00800           0
     21378 MEMB     185      OSM      H12T     HAL2     0.900000E-01   1.00800           0
     21379 MEMB     185      OSM      C13S     CTL2    -0.180000       12.0110           0
     21380 MEMB     185      OSM      H13S     HAL2     0.900000E-01   1.00800           0
     21381 MEMB     185      OSM      H13T     HAL2     0.900000E-01   1.00800           0
     21382 MEMB     185      OSM      C14S     CTL2    -0.180000       12.0110           0
     21383 MEMB     185      OSM      H14S     HAL2     0.900000E-01   1.00800           0
     21384 MEMB     185      OSM      H14T     HAL2     0.900000E-01   1.00800           0
     21385 MEMB     185      OSM      C15S     CTL2    -0.180000       12.0110           0
     21386 MEMB     185      OSM      H15S     HAL2     0.900000E-01   1.00800           0
     21387 MEMB     185      OSM      H15T     HAL2     0.900000E-01   1.00800           0
     21388 MEMB     185      OSM      C16S     CTL2    -0.180000       12.0110           0
     21389 MEMB     185      OSM      H16S     HAL2     0.900000E-01   1.00800           0
     21390 MEMB     185      OSM      H16T     HAL2     0.900000E-01   1.00800           0
     21391 MEMB     185      OSM      C17S     CTL2    -0.180000       12.0110           0
     21392 MEMB     185      OSM      H17S     HAL2     0.900000E-01   1.00800           0
     21393 MEMB     185      OSM      H17T     HAL2     0.900000E-01   1.00800           0
     21394 MEMB     185      OSM      C18S     CTL3    -0.270000       12.0110           0
     21395 MEMB     185      OSM      H18S     HAL3     0.900000E-01   1.00800           0
     21396 MEMB     185      OSM      H18T     HAL3     0.900000E-01   1.00800           0
     21397 MEMB     185      OSM      H18U     HAL3     0.900000E-01   1.00800           0
     21398 MEMB     185      OSM      C1F      C        0.550000       12.0110           0
     21399 MEMB     185      OSM      OF       O       -0.600000       15.9994           0
     21400 MEMB     185      OSM      C2F      CTL2    -0.700000E-01   12.0110           0
     21401 MEMB     185      OSM      H2F      HAL2     0.600000E-01   1.00800           0
     21402 MEMB     185      OSM      H2G      HAL2     0.600000E-01   1.00800           0
     21403 MEMB     185      OSM      C3F      CTL2    -0.180000       12.0110           0
     21404 MEMB     185      OSM      H3F      HAL2     0.900000E-01   1.00800           0
     21405 MEMB     185      OSM      H3G      HAL2     0.900000E-01   1.00800           0
     21406 MEMB     185      OSM      C4F      CTL2    -0.180000       12.0110           0
     21407 MEMB     185      OSM      H4F      HAL2     0.900000E-01   1.00800           0
     21408 MEMB     185      OSM      H4G      HAL2     0.900000E-01   1.00800           0
     21409 MEMB     185      OSM      C5F      CTL2    -0.180000       12.0110           0
     21410 MEMB     185      OSM      H5F      HAL2     0.900000E-01   1.00800           0
     21411 MEMB     185      OSM      H5G      HAL2     0.900000E-01   1.00800           0
     21412 MEMB     185      OSM      C6F      CTL2    -0.180000       12.0110           0
     21413 MEMB     185      OSM      H6F      HAL2     0.900000E-01   1.00800           0
     21414 MEMB     185      OSM      H6G      HAL2     0.900000E-01   1.00800           0
     21415 MEMB     185      OSM      C7F      CTL2    -0.180000       12.0110           0
     21416 MEMB     185      OSM      H7F      HAL2     0.900000E-01   1.00800           0
     21417 MEMB     185      OSM      H7G      HAL2     0.900000E-01   1.00800           0
     21418 MEMB     185      OSM      C8F      CTL2    -0.180000       12.0110           0
     21419 MEMB     185      OSM      H8F      HAL2     0.900000E-01   1.00800           0
     21420 MEMB     185      OSM      H8G      HAL2     0.900000E-01   1.00800           0
     21421 MEMB     185      OSM      C9F      CEL1    -0.150000       12.0110           0
     21422 MEMB     185      OSM      H9F      HEL1     0.150000       1.00800           0
     21423 MEMB     185      OSM      C10F     CEL1    -0.150000       12.0110           0
     21424 MEMB     185      OSM      H10F     HEL1     0.150000       1.00800           0
     21425 MEMB     185      OSM      C11F     CTL2    -0.180000       12.0110           0
     21426 MEMB     185      OSM      H11F     HAL2     0.900000E-01   1.00800           0
     21427 MEMB     185      OSM      H11G     HAL2     0.900000E-01   1.00800           0
     21428 MEMB     185      OSM      C12F     CTL2    -0.180000       12.0110           0
     21429 MEMB     185      OSM      H12F     HAL2     0.900000E-01   1.00800           0
     21430 MEMB     185      OSM      H12G     HAL2     0.900000E-01   1.00800           0
     21431 MEMB     185      OSM      C13F     CTL2    -0.180000       12.0110           0
     21432 MEMB     185      OSM      H13F     HAL2     0.900000E-01   1.00800           0
     21433 MEMB     185      OSM      H13G     HAL2     0.900000E-01   1.00800           0
     21434 MEMB     185      OSM      C14F     CTL2    -0.180000       12.0110           0
     21435 MEMB     185      OSM      H14F     HAL2     0.900000E-01   1.00800           0
     21436 MEMB     185      OSM      H14G     HAL2     0.900000E-01   1.00800           0
     21437 MEMB     185      OSM      C15F     CTL2    -0.180000       12.0110           0
     21438 MEMB     185      OSM      H15F     HAL2     0.900000E-01   1.00800           0
     21439 MEMB     185      OSM      H15G     HAL2     0.900000E-01   1.00800           0
     21440 MEMB     185      OSM      C16F     CTL2    -0.180000       12.0110           0
     21441 MEMB     185      OSM      H16F     HAL2     0.900000E-01   1.00800           0
     21442 MEMB     185      OSM      H16G     HAL2     0.900000E-01   1.00800           0
     21443 MEMB     185      OSM      C17F     CTL2    -0.180000       12.0110           0
     21444 MEMB     185      OSM      H17F     HAL2     0.900000E-01   1.00800           0
     21445 MEMB     185      OSM      H17G     HAL2     0.900000E-01   1.00800           0
     21446 MEMB     185      OSM      C18F     CTL3    -0.270000       12.0110           0
     21447 MEMB     185      OSM      H18F     HAL3     0.900000E-01   1.00800           0
     21448 MEMB     185      OSM      H18G     HAL3     0.900000E-01   1.00800           0
     21449 MEMB     185      OSM      H18H     HAL3     0.900000E-01   1.00800           0
     21450 MEMB     186      SAPS     N        NH3L    -0.300000       14.0070           0
     21451 MEMB     186      SAPS     HN1      HCL      0.330000       1.00800           0
     21452 MEMB     186      SAPS     HN2      HCL      0.330000       1.00800           0
     21453 MEMB     186      SAPS     HN3      HCL      0.330000       1.00800           0
     21454 MEMB     186      SAPS     C12      CTL1     0.210000       12.0110           0
     21455 MEMB     186      SAPS     H12A     HBL      0.100000       1.00800           0
     21456 MEMB     186      SAPS     C13      CCL      0.340000       12.0110           0
     21457 MEMB     186      SAPS     O13A     OCL     -0.670000       15.9994           0
     21458 MEMB     186      SAPS     O13B     OCL     -0.670000       15.9994           0
     21459 MEMB     186      SAPS     C11      CTL2    -0.800000E-01   12.0110           0
     21460 MEMB     186      SAPS     H11A     HAL2     0.900000E-01   1.00800           0
     21461 MEMB     186      SAPS     H11B     HAL2     0.900000E-01   1.00800           0
     21462 MEMB     186      SAPS     P        PL        1.50000       30.9740           0
     21463 MEMB     186      SAPS     O13      O2L     -0.780000       15.9994           0
     21464 MEMB     186      SAPS     O14      O2L     -0.780000       15.9994           0
     21465 MEMB     186      SAPS     O12      OSLP    -0.570000       15.9994           0
     21466 MEMB     186      SAPS     O11      OSLP    -0.570000       15.9994           0
     21467 MEMB     186      SAPS     C1       CTL2    -0.800000E-01   12.0110           0
     21468 MEMB     186      SAPS     HA       HAL2     0.900000E-01   1.00800           0
     21469 MEMB     186      SAPS     HB       HAL2     0.900000E-01   1.00800           0
     21470 MEMB     186      SAPS     C2       CTL1     0.170000       12.0110           0
     21471 MEMB     186      SAPS     HS       HAL1     0.900000E-01   1.00800           0
     21472 MEMB     186      SAPS     O21      OSL     -0.490000       15.9994           0
     21473 MEMB     186      SAPS     C21      CL       0.900000       12.0110           0
     21474 MEMB     186      SAPS     O22      OBL     -0.630000       15.9994           0
     21475 MEMB     186      SAPS     C22      CTL2    -0.220000       12.0110           0
     21476 MEMB     186      SAPS     H2R      HAL2     0.900000E-01   1.00800           0
     21477 MEMB     186      SAPS     H2S      HAL2     0.900000E-01   1.00800           0
     21478 MEMB     186      SAPS     C3       CTL2     0.800000E-01   12.0110           0
     21479 MEMB     186      SAPS     HX       HAL2     0.900000E-01   1.00800           0
     21480 MEMB     186      SAPS     HY       HAL2     0.900000E-01   1.00800           0
     21481 MEMB     186      SAPS     O31      OSL     -0.490000       15.9994           0
     21482 MEMB     186      SAPS     C31      CL       0.900000       12.0110           0
     21483 MEMB     186      SAPS     O32      OBL     -0.630000       15.9994           0
     21484 MEMB     186      SAPS     C32      CTL2    -0.220000       12.0110           0
     21485 MEMB     186      SAPS     H2X      HAL2     0.900000E-01   1.00800           0
     21486 MEMB     186      SAPS     H2Y      HAL2     0.900000E-01   1.00800           0
     21487 MEMB     186      SAPS     C23      CTL2    -0.180000       12.0110           0
     21488 MEMB     186      SAPS     H3R      HAL2     0.900000E-01   1.00800           0
     21489 MEMB     186      SAPS     H3S      HAL2     0.900000E-01   1.00800           0
     21490 MEMB     186      SAPS     C24      CTL2    -0.180000       12.0110           0
     21491 MEMB     186      SAPS     H4R      HAL2     0.900000E-01   1.00800           0
     21492 MEMB     186      SAPS     H4S      HAL2     0.900000E-01   1.00800           0
     21493 MEMB     186      SAPS     C25      CEL1    -0.150000       12.0110           0
     21494 MEMB     186      SAPS     H5R      HEL1     0.150000       1.00800           0
     21495 MEMB     186      SAPS     C26      CEL1    -0.150000       12.0110           0
     21496 MEMB     186      SAPS     H6R      HEL1     0.150000       1.00800           0
     21497 MEMB     186      SAPS     C27      CTL2    -0.180000       12.0110           0
     21498 MEMB     186      SAPS     H7R      HAL2     0.900000E-01   1.00800           0
     21499 MEMB     186      SAPS     H7S      HAL2     0.900000E-01   1.00800           0
     21500 MEMB     186      SAPS     C28      CEL1    -0.150000       12.0110           0
     21501 MEMB     186      SAPS     H8R      HEL1     0.150000       1.00800           0
     21502 MEMB     186      SAPS     C29      CEL1    -0.150000       12.0110           0
     21503 MEMB     186      SAPS     H9R      HEL1     0.150000       1.00800           0
     21504 MEMB     186      SAPS     C210     CTL2    -0.180000       12.0110           0
     21505 MEMB     186      SAPS     H10R     HAL2     0.900000E-01   1.00800           0
     21506 MEMB     186      SAPS     H10S     HAL2     0.900000E-01   1.00800           0
     21507 MEMB     186      SAPS     C211     CEL1    -0.150000       12.0110           0
     21508 MEMB     186      SAPS     H11R     HEL1     0.150000       1.00800           0
     21509 MEMB     186      SAPS     C212     CEL1    -0.150000       12.0110           0
     21510 MEMB     186      SAPS     H12R     HEL1     0.150000       1.00800           0
     21511 MEMB     186      SAPS     C213     CTL2    -0.180000       12.0110           0
     21512 MEMB     186      SAPS     H13R     HAL2     0.900000E-01   1.00800           0
     21513 MEMB     186      SAPS     H13S     HAL2     0.900000E-01   1.00800           0
     21514 MEMB     186      SAPS     C214     CEL1    -0.150000       12.0110           0
     21515 MEMB     186      SAPS     H14R     HEL1     0.150000       1.00800           0
     21516 MEMB     186      SAPS     C215     CEL1    -0.150000       12.0110           0
     21517 MEMB     186      SAPS     H15R     HEL1     0.150000       1.00800           0
     21518 MEMB     186      SAPS     C216     CTL2    -0.180000       12.0110           0
     21519 MEMB     186      SAPS     H16R     HAL2     0.900000E-01   1.00800           0
     21520 MEMB     186      SAPS     H16S     HAL2     0.900000E-01   1.00800           0
     21521 MEMB     186      SAPS     C217     CTL2    -0.180000       12.0110           0
     21522 MEMB     186      SAPS     H17R     HAL2     0.900000E-01   1.00800           0
     21523 MEMB     186      SAPS     H17S     HAL2     0.900000E-01   1.00800           0
     21524 MEMB     186      SAPS     C218     CTL2    -0.180000       12.0110           0
     21525 MEMB     186      SAPS     H18R     HAL2     0.900000E-01   1.00800           0
     21526 MEMB     186      SAPS     H18S     HAL2     0.900000E-01   1.00800           0
     21527 MEMB     186      SAPS     C219     CTL2    -0.180000       12.0110           0
     21528 MEMB     186      SAPS     H19R     HAL2     0.900000E-01   1.00800           0
     21529 MEMB     186      SAPS     H19S     HAL2     0.900000E-01   1.00800           0
     21530 MEMB     186      SAPS     C220     CTL3    -0.270000       12.0110           0
     21531 MEMB     186      SAPS     H20R     HAL3     0.900000E-01   1.00800           0
     21532 MEMB     186      SAPS     H20S     HAL3     0.900000E-01   1.00800           0
     21533 MEMB     186      SAPS     H20T     HAL3     0.900000E-01   1.00800           0
     21534 MEMB     186      SAPS     C33      CTL2    -0.180000       12.0110           0
     21535 MEMB     186      SAPS     H3X      HAL2     0.900000E-01   1.00800           0
     21536 MEMB     186      SAPS     H3Y      HAL2     0.900000E-01   1.00800           0
     21537 MEMB     186      SAPS     C34      CTL2    -0.180000       12.0110           0
     21538 MEMB     186      SAPS     H4X      HAL2     0.900000E-01   1.00800           0
     21539 MEMB     186      SAPS     H4Y      HAL2     0.900000E-01   1.00800           0
     21540 MEMB     186      SAPS     C35      CTL2    -0.180000       12.0110           0
     21541 MEMB     186      SAPS     H5X      HAL2     0.900000E-01   1.00800           0
     21542 MEMB     186      SAPS     H5Y      HAL2     0.900000E-01   1.00800           0
     21543 MEMB     186      SAPS     C36      CTL2    -0.180000       12.0110           0
     21544 MEMB     186      SAPS     H6X      HAL2     0.900000E-01   1.00800           0
     21545 MEMB     186      SAPS     H6Y      HAL2     0.900000E-01   1.00800           0
     21546 MEMB     186      SAPS     C37      CTL2    -0.180000       12.0110           0
     21547 MEMB     186      SAPS     H7X      HAL2     0.900000E-01   1.00800           0
     21548 MEMB     186      SAPS     H7Y      HAL2     0.900000E-01   1.00800           0
     21549 MEMB     186      SAPS     C38      CTL2    -0.180000       12.0110           0
     21550 MEMB     186      SAPS     H8X      HAL2     0.900000E-01   1.00800           0
     21551 MEMB     186      SAPS     H8Y      HAL2     0.900000E-01   1.00800           0
     21552 MEMB     186      SAPS     C39      CTL2    -0.180000       12.0110           0
     21553 MEMB     186      SAPS     H9X      HAL2     0.900000E-01   1.00800           0
     21554 MEMB     186      SAPS     H9Y      HAL2     0.900000E-01   1.00800           0
     21555 MEMB     186      SAPS     C310     CTL2    -0.180000       12.0110           0
     21556 MEMB     186      SAPS     H10X     HAL2     0.900000E-01   1.00800           0
     21557 MEMB     186      SAPS     H10Y     HAL2     0.900000E-01   1.00800           0
     21558 MEMB     186      SAPS     C311     CTL2    -0.180000       12.0110           0
     21559 MEMB     186      SAPS     H11X     HAL2     0.900000E-01   1.00800           0
     21560 MEMB     186      SAPS     H11Y     HAL2     0.900000E-01   1.00800           0
     21561 MEMB     186      SAPS     C312     CTL2    -0.180000       12.0110           0
     21562 MEMB     186      SAPS     H12X     HAL2     0.900000E-01   1.00800           0
     21563 MEMB     186      SAPS     H12Y     HAL2     0.900000E-01   1.00800           0
     21564 MEMB     186      SAPS     C313     CTL2    -0.180000       12.0110           0
     21565 MEMB     186      SAPS     H13X     HAL2     0.900000E-01   1.00800           0
     21566 MEMB     186      SAPS     H13Y     HAL2     0.900000E-01   1.00800           0
     21567 MEMB     186      SAPS     C314     CTL2    -0.180000       12.0110           0
     21568 MEMB     186      SAPS     H14X     HAL2     0.900000E-01   1.00800           0
     21569 MEMB     186      SAPS     H14Y     HAL2     0.900000E-01   1.00800           0
     21570 MEMB     186      SAPS     C315     CTL2    -0.180000       12.0110           0
     21571 MEMB     186      SAPS     H15X     HAL2     0.900000E-01   1.00800           0
     21572 MEMB     186      SAPS     H15Y     HAL2     0.900000E-01   1.00800           0
     21573 MEMB     186      SAPS     C316     CTL2    -0.180000       12.0110           0
     21574 MEMB     186      SAPS     H16X     HAL2     0.900000E-01   1.00800           0
     21575 MEMB     186      SAPS     H16Y     HAL2     0.900000E-01   1.00800           0
     21576 MEMB     186      SAPS     C317     CTL2    -0.180000       12.0110           0
     21577 MEMB     186      SAPS     H17X     HAL2     0.900000E-01   1.00800           0
     21578 MEMB     186      SAPS     H17Y     HAL2     0.900000E-01   1.00800           0
     21579 MEMB     186      SAPS     C318     CTL3    -0.270000       12.0110           0
     21580 MEMB     186      SAPS     H18X     HAL3     0.900000E-01   1.00800           0
     21581 MEMB     186      SAPS     H18Y     HAL3     0.900000E-01   1.00800           0
     21582 MEMB     186      SAPS     H18Z     HAL3     0.900000E-01   1.00800           0
     21583 MEMB     187      OSM      N        NTL     -0.600000       14.0070           0
     21584 MEMB     187      OSM      C15      CTL5    -0.350000       12.0110           0
     21585 MEMB     187      OSM      H15A     HL       0.250000       1.00800           0
     21586 MEMB     187      OSM      H15B     HL       0.250000       1.00800           0
     21587 MEMB     187      OSM      H15C     HL       0.250000       1.00800           0
     21588 MEMB     187      OSM      C14      CTL5    -0.350000       12.0110           0
     21589 MEMB     187      OSM      H14A     HL       0.250000       1.00800           0
     21590 MEMB     187      OSM      H14B     HL       0.250000       1.00800           0
     21591 MEMB     187      OSM      H14C     HL       0.250000       1.00800           0
     21592 MEMB     187      OSM      C13      CTL5    -0.350000       12.0110           0
     21593 MEMB     187      OSM      H13A     HL       0.250000       1.00800           0
     21594 MEMB     187      OSM      H13B     HL       0.250000       1.00800           0
     21595 MEMB     187      OSM      H13C     HL       0.250000       1.00800           0
     21596 MEMB     187      OSM      C12      CTL2    -0.100000       12.0110           0
     21597 MEMB     187      OSM      H12A     HL       0.250000       1.00800           0
     21598 MEMB     187      OSM      H12B     HL       0.250000       1.00800           0
     21599 MEMB     187      OSM      C11      CTL2    -0.800000E-01   12.0110           0
     21600 MEMB     187      OSM      H11A     HAL2     0.900000E-01   1.00800           0
     21601 MEMB     187      OSM      H11B     HAL2     0.900000E-01   1.00800           0
     21602 MEMB     187      OSM      P        PL        1.50000       30.9740           0
     21603 MEMB     187      OSM      O13      O2L     -0.780000       15.9994           0
     21604 MEMB     187      OSM      O14      O2L     -0.780000       15.9994           0
     21605 MEMB     187      OSM      O11      OSLP    -0.570000       15.9994           0
     21606 MEMB     187      OSM      O12      OSLP    -0.570000       15.9994           0
     21607 MEMB     187      OSM      C1S      CTL2    -0.800000E-01   12.0110           0
     21608 MEMB     187      OSM      H1S      HAL2     0.900000E-01   1.00800           0
     21609 MEMB     187      OSM      H1T      HAL2     0.900000E-01   1.00800           0
     21610 MEMB     187      OSM      NF       NHL     -0.700000       14.0070           0
     21611 MEMB     187      OSM      HNF      H        0.350000       1.00800           0
     21612 MEMB     187      OSM      C2S      CTL1     0.300000       12.0110           0
     21613 MEMB     187      OSM      H2S      HAL1     0.500000E-01   1.00800           0
     21614 MEMB     187      OSM      C3S      CTO1     0.500000       12.0110           0
     21615 MEMB     187      OSM      H3S      HAL1    -0.110000       1.00800           0
     21616 MEMB     187      OSM      O3       OHL     -0.690000       15.9994           0
     21617 MEMB     187      OSM      HO3      HOL      0.300000       1.00800           0
     21618 MEMB     187      OSM      C4S      CEL3    -0.150000       12.0110           0
     21619 MEMB     187      OSM      H4S      HEL1     0.150000       1.00800           0
     21620 MEMB     187      OSM      C5S      CEL3    -0.150000       12.0110           0
     21621 MEMB     187      OSM      H5S      HEL1     0.150000       1.00800           0
     21622 MEMB     187      OSM      C6S      CTL2    -0.180000       12.0110           0
     21623 MEMB     187      OSM      H6S      HAL2     0.900000E-01   1.00800           0
     21624 MEMB     187      OSM      H6T      HAL2     0.900000E-01   1.00800           0
     21625 MEMB     187      OSM      C7S      CTL2    -0.180000       12.0110           0
     21626 MEMB     187      OSM      H7S      HAL2     0.900000E-01   1.00800           0
     21627 MEMB     187      OSM      H7T      HAL2     0.900000E-01   1.00800           0
     21628 MEMB     187      OSM      C8S      CTL2    -0.180000       12.0110           0
     21629 MEMB     187      OSM      H8S      HAL2     0.900000E-01   1.00800           0
     21630 MEMB     187      OSM      H8T      HAL2     0.900000E-01   1.00800           0
     21631 MEMB     187      OSM      C9S      CTL2    -0.180000       12.0110           0
     21632 MEMB     187      OSM      H9S      HAL2     0.900000E-01   1.00800           0
     21633 MEMB     187      OSM      H9T      HAL2     0.900000E-01   1.00800           0
     21634 MEMB     187      OSM      C10S     CTL2    -0.180000       12.0110           0
     21635 MEMB     187      OSM      H10S     HAL2     0.900000E-01   1.00800           0
     21636 MEMB     187      OSM      H10T     HAL2     0.900000E-01   1.00800           0
     21637 MEMB     187      OSM      C11S     CTL2    -0.180000       12.0110           0
     21638 MEMB     187      OSM      H11S     HAL2     0.900000E-01   1.00800           0
     21639 MEMB     187      OSM      H11T     HAL2     0.900000E-01   1.00800           0
     21640 MEMB     187      OSM      C12S     CTL2    -0.180000       12.0110           0
     21641 MEMB     187      OSM      H12S     HAL2     0.900000E-01   1.00800           0
     21642 MEMB     187      OSM      H12T     HAL2     0.900000E-01   1.00800           0
     21643 MEMB     187      OSM      C13S     CTL2    -0.180000       12.0110           0
     21644 MEMB     187      OSM      H13S     HAL2     0.900000E-01   1.00800           0
     21645 MEMB     187      OSM      H13T     HAL2     0.900000E-01   1.00800           0
     21646 MEMB     187      OSM      C14S     CTL2    -0.180000       12.0110           0
     21647 MEMB     187      OSM      H14S     HAL2     0.900000E-01   1.00800           0
     21648 MEMB     187      OSM      H14T     HAL2     0.900000E-01   1.00800           0
     21649 MEMB     187      OSM      C15S     CTL2    -0.180000       12.0110           0
     21650 MEMB     187      OSM      H15S     HAL2     0.900000E-01   1.00800           0
     21651 MEMB     187      OSM      H15T     HAL2     0.900000E-01   1.00800           0
     21652 MEMB     187      OSM      C16S     CTL2    -0.180000       12.0110           0
     21653 MEMB     187      OSM      H16S     HAL2     0.900000E-01   1.00800           0
     21654 MEMB     187      OSM      H16T     HAL2     0.900000E-01   1.00800           0
     21655 MEMB     187      OSM      C17S     CTL2    -0.180000       12.0110           0
     21656 MEMB     187      OSM      H17S     HAL2     0.900000E-01   1.00800           0
     21657 MEMB     187      OSM      H17T     HAL2     0.900000E-01   1.00800           0
     21658 MEMB     187      OSM      C18S     CTL3    -0.270000       12.0110           0
     21659 MEMB     187      OSM      H18S     HAL3     0.900000E-01   1.00800           0
     21660 MEMB     187      OSM      H18T     HAL3     0.900000E-01   1.00800           0
     21661 MEMB     187      OSM      H18U     HAL3     0.900000E-01   1.00800           0
     21662 MEMB     187      OSM      C1F      C        0.550000       12.0110           0
     21663 MEMB     187      OSM      OF       O       -0.600000       15.9994           0
     21664 MEMB     187      OSM      C2F      CTL2    -0.700000E-01   12.0110           0
     21665 MEMB     187      OSM      H2F      HAL2     0.600000E-01   1.00800           0
     21666 MEMB     187      OSM      H2G      HAL2     0.600000E-01   1.00800           0
     21667 MEMB     187      OSM      C3F      CTL2    -0.180000       12.0110           0
     21668 MEMB     187      OSM      H3F      HAL2     0.900000E-01   1.00800           0
     21669 MEMB     187      OSM      H3G      HAL2     0.900000E-01   1.00800           0
     21670 MEMB     187      OSM      C4F      CTL2    -0.180000       12.0110           0
     21671 MEMB     187      OSM      H4F      HAL2     0.900000E-01   1.00800           0
     21672 MEMB     187      OSM      H4G      HAL2     0.900000E-01   1.00800           0
     21673 MEMB     187      OSM      C5F      CTL2    -0.180000       12.0110           0
     21674 MEMB     187      OSM      H5F      HAL2     0.900000E-01   1.00800           0
     21675 MEMB     187      OSM      H5G      HAL2     0.900000E-01   1.00800           0
     21676 MEMB     187      OSM      C6F      CTL2    -0.180000       12.0110           0
     21677 MEMB     187      OSM      H6F      HAL2     0.900000E-01   1.00800           0
     21678 MEMB     187      OSM      H6G      HAL2     0.900000E-01   1.00800           0
     21679 MEMB     187      OSM      C7F      CTL2    -0.180000       12.0110           0
     21680 MEMB     187      OSM      H7F      HAL2     0.900000E-01   1.00800           0
     21681 MEMB     187      OSM      H7G      HAL2     0.900000E-01   1.00800           0
     21682 MEMB     187      OSM      C8F      CTL2    -0.180000       12.0110           0
     21683 MEMB     187      OSM      H8F      HAL2     0.900000E-01   1.00800           0
     21684 MEMB     187      OSM      H8G      HAL2     0.900000E-01   1.00800           0
     21685 MEMB     187      OSM      C9F      CEL1    -0.150000       12.0110           0
     21686 MEMB     187      OSM      H9F      HEL1     0.150000       1.00800           0
     21687 MEMB     187      OSM      C10F     CEL1    -0.150000       12.0110           0
     21688 MEMB     187      OSM      H10F     HEL1     0.150000       1.00800           0
     21689 MEMB     187      OSM      C11F     CTL2    -0.180000       12.0110           0
     21690 MEMB     187      OSM      H11F     HAL2     0.900000E-01   1.00800           0
     21691 MEMB     187      OSM      H11G     HAL2     0.900000E-01   1.00800           0
     21692 MEMB     187      OSM      C12F     CTL2    -0.180000       12.0110           0
     21693 MEMB     187      OSM      H12F     HAL2     0.900000E-01   1.00800           0
     21694 MEMB     187      OSM      H12G     HAL2     0.900000E-01   1.00800           0
     21695 MEMB     187      OSM      C13F     CTL2    -0.180000       12.0110           0
     21696 MEMB     187      OSM      H13F     HAL2     0.900000E-01   1.00800           0
     21697 MEMB     187      OSM      H13G     HAL2     0.900000E-01   1.00800           0
     21698 MEMB     187      OSM      C14F     CTL2    -0.180000       12.0110           0
     21699 MEMB     187      OSM      H14F     HAL2     0.900000E-01   1.00800           0
     21700 MEMB     187      OSM      H14G     HAL2     0.900000E-01   1.00800           0
     21701 MEMB     187      OSM      C15F     CTL2    -0.180000       12.0110           0
     21702 MEMB     187      OSM      H15F     HAL2     0.900000E-01   1.00800           0
     21703 MEMB     187      OSM      H15G     HAL2     0.900000E-01   1.00800           0
     21704 MEMB     187      OSM      C16F     CTL2    -0.180000       12.0110           0
     21705 MEMB     187      OSM      H16F     HAL2     0.900000E-01   1.00800           0
     21706 MEMB     187      OSM      H16G     HAL2     0.900000E-01   1.00800           0
     21707 MEMB     187      OSM      C17F     CTL2    -0.180000       12.0110           0
     21708 MEMB     187      OSM      H17F     HAL2     0.900000E-01   1.00800           0
     21709 MEMB     187      OSM      H17G     HAL2     0.900000E-01   1.00800           0
     21710 MEMB     187      OSM      C18F     CTL3    -0.270000       12.0110           0
     21711 MEMB     187      OSM      H18F     HAL3     0.900000E-01   1.00800           0
     21712 MEMB     187      OSM      H18G     HAL3     0.900000E-01   1.00800           0
     21713 MEMB     187      OSM      H18H     HAL3     0.900000E-01   1.00800           0
     21714 MEMB     188      OSM      N        NTL     -0.600000       14.0070           0
     21715 MEMB     188      OSM      C15      CTL5    -0.350000       12.0110           0
     21716 MEMB     188      OSM      H15A     HL       0.250000       1.00800           0
     21717 MEMB     188      OSM      H15B     HL       0.250000       1.00800           0
     21718 MEMB     188      OSM      H15C     HL       0.250000       1.00800           0
     21719 MEMB     188      OSM      C14      CTL5    -0.350000       12.0110           0
     21720 MEMB     188      OSM      H14A     HL       0.250000       1.00800           0
     21721 MEMB     188      OSM      H14B     HL       0.250000       1.00800           0
     21722 MEMB     188      OSM      H14C     HL       0.250000       1.00800           0
     21723 MEMB     188      OSM      C13      CTL5    -0.350000       12.0110           0
     21724 MEMB     188      OSM      H13A     HL       0.250000       1.00800           0
     21725 MEMB     188      OSM      H13B     HL       0.250000       1.00800           0
     21726 MEMB     188      OSM      H13C     HL       0.250000       1.00800           0
     21727 MEMB     188      OSM      C12      CTL2    -0.100000       12.0110           0
     21728 MEMB     188      OSM      H12A     HL       0.250000       1.00800           0
     21729 MEMB     188      OSM      H12B     HL       0.250000       1.00800           0
     21730 MEMB     188      OSM      C11      CTL2    -0.800000E-01   12.0110           0
     21731 MEMB     188      OSM      H11A     HAL2     0.900000E-01   1.00800           0
     21732 MEMB     188      OSM      H11B     HAL2     0.900000E-01   1.00800           0
     21733 MEMB     188      OSM      P        PL        1.50000       30.9740           0
     21734 MEMB     188      OSM      O13      O2L     -0.780000       15.9994           0
     21735 MEMB     188      OSM      O14      O2L     -0.780000       15.9994           0
     21736 MEMB     188      OSM      O11      OSLP    -0.570000       15.9994           0
     21737 MEMB     188      OSM      O12      OSLP    -0.570000       15.9994           0
     21738 MEMB     188      OSM      C1S      CTL2    -0.800000E-01   12.0110           0
     21739 MEMB     188      OSM      H1S      HAL2     0.900000E-01   1.00800           0
     21740 MEMB     188      OSM      H1T      HAL2     0.900000E-01   1.00800           0
     21741 MEMB     188      OSM      NF       NHL     -0.700000       14.0070           0
     21742 MEMB     188      OSM      HNF      H        0.350000       1.00800           0
     21743 MEMB     188      OSM      C2S      CTL1     0.300000       12.0110           0
     21744 MEMB     188      OSM      H2S      HAL1     0.500000E-01   1.00800           0
     21745 MEMB     188      OSM      C3S      CTO1     0.500000       12.0110           0
     21746 MEMB     188      OSM      H3S      HAL1    -0.110000       1.00800           0
     21747 MEMB     188      OSM      O3       OHL     -0.690000       15.9994           0
     21748 MEMB     188      OSM      HO3      HOL      0.300000       1.00800           0
     21749 MEMB     188      OSM      C4S      CEL3    -0.150000       12.0110           0
     21750 MEMB     188      OSM      H4S      HEL1     0.150000       1.00800           0
     21751 MEMB     188      OSM      C5S      CEL3    -0.150000       12.0110           0
     21752 MEMB     188      OSM      H5S      HEL1     0.150000       1.00800           0
     21753 MEMB     188      OSM      C6S      CTL2    -0.180000       12.0110           0
     21754 MEMB     188      OSM      H6S      HAL2     0.900000E-01   1.00800           0
     21755 MEMB     188      OSM      H6T      HAL2     0.900000E-01   1.00800           0
     21756 MEMB     188      OSM      C7S      CTL2    -0.180000       12.0110           0
     21757 MEMB     188      OSM      H7S      HAL2     0.900000E-01   1.00800           0
     21758 MEMB     188      OSM      H7T      HAL2     0.900000E-01   1.00800           0
     21759 MEMB     188      OSM      C8S      CTL2    -0.180000       12.0110           0
     21760 MEMB     188      OSM      H8S      HAL2     0.900000E-01   1.00800           0
     21761 MEMB     188      OSM      H8T      HAL2     0.900000E-01   1.00800           0
     21762 MEMB     188      OSM      C9S      CTL2    -0.180000       12.0110           0
     21763 MEMB     188      OSM      H9S      HAL2     0.900000E-01   1.00800           0
     21764 MEMB     188      OSM      H9T      HAL2     0.900000E-01   1.00800           0
     21765 MEMB     188      OSM      C10S     CTL2    -0.180000       12.0110           0
     21766 MEMB     188      OSM      H10S     HAL2     0.900000E-01   1.00800           0
     21767 MEMB     188      OSM      H10T     HAL2     0.900000E-01   1.00800           0
     21768 MEMB     188      OSM      C11S     CTL2    -0.180000       12.0110           0
     21769 MEMB     188      OSM      H11S     HAL2     0.900000E-01   1.00800           0
     21770 MEMB     188      OSM      H11T     HAL2     0.900000E-01   1.00800           0
     21771 MEMB     188      OSM      C12S     CTL2    -0.180000       12.0110           0
     21772 MEMB     188      OSM      H12S     HAL2     0.900000E-01   1.00800           0
     21773 MEMB     188      OSM      H12T     HAL2     0.900000E-01   1.00800           0
     21774 MEMB     188      OSM      C13S     CTL2    -0.180000       12.0110           0
     21775 MEMB     188      OSM      H13S     HAL2     0.900000E-01   1.00800           0
     21776 MEMB     188      OSM      H13T     HAL2     0.900000E-01   1.00800           0
     21777 MEMB     188      OSM      C14S     CTL2    -0.180000       12.0110           0
     21778 MEMB     188      OSM      H14S     HAL2     0.900000E-01   1.00800           0
     21779 MEMB     188      OSM      H14T     HAL2     0.900000E-01   1.00800           0
     21780 MEMB     188      OSM      C15S     CTL2    -0.180000       12.0110           0
     21781 MEMB     188      OSM      H15S     HAL2     0.900000E-01   1.00800           0
     21782 MEMB     188      OSM      H15T     HAL2     0.900000E-01   1.00800           0
     21783 MEMB     188      OSM      C16S     CTL2    -0.180000       12.0110           0
     21784 MEMB     188      OSM      H16S     HAL2     0.900000E-01   1.00800           0
     21785 MEMB     188      OSM      H16T     HAL2     0.900000E-01   1.00800           0
     21786 MEMB     188      OSM      C17S     CTL2    -0.180000       12.0110           0
     21787 MEMB     188      OSM      H17S     HAL2     0.900000E-01   1.00800           0
     21788 MEMB     188      OSM      H17T     HAL2     0.900000E-01   1.00800           0
     21789 MEMB     188      OSM      C18S     CTL3    -0.270000       12.0110           0
     21790 MEMB     188      OSM      H18S     HAL3     0.900000E-01   1.00800           0
     21791 MEMB     188      OSM      H18T     HAL3     0.900000E-01   1.00800           0
     21792 MEMB     188      OSM      H18U     HAL3     0.900000E-01   1.00800           0
     21793 MEMB     188      OSM      C1F      C        0.550000       12.0110           0
     21794 MEMB     188      OSM      OF       O       -0.600000       15.9994           0
     21795 MEMB     188      OSM      C2F      CTL2    -0.700000E-01   12.0110           0
     21796 MEMB     188      OSM      H2F      HAL2     0.600000E-01   1.00800           0
     21797 MEMB     188      OSM      H2G      HAL2     0.600000E-01   1.00800           0
     21798 MEMB     188      OSM      C3F      CTL2    -0.180000       12.0110           0
     21799 MEMB     188      OSM      H3F      HAL2     0.900000E-01   1.00800           0
     21800 MEMB     188      OSM      H3G      HAL2     0.900000E-01   1.00800           0
     21801 MEMB     188      OSM      C4F      CTL2    -0.180000       12.0110           0
     21802 MEMB     188      OSM      H4F      HAL2     0.900000E-01   1.00800           0
     21803 MEMB     188      OSM      H4G      HAL2     0.900000E-01   1.00800           0
     21804 MEMB     188      OSM      C5F      CTL2    -0.180000       12.0110           0
     21805 MEMB     188      OSM      H5F      HAL2     0.900000E-01   1.00800           0
     21806 MEMB     188      OSM      H5G      HAL2     0.900000E-01   1.00800           0
     21807 MEMB     188      OSM      C6F      CTL2    -0.180000       12.0110           0
     21808 MEMB     188      OSM      H6F      HAL2     0.900000E-01   1.00800           0
     21809 MEMB     188      OSM      H6G      HAL2     0.900000E-01   1.00800           0
     21810 MEMB     188      OSM      C7F      CTL2    -0.180000       12.0110           0
     21811 MEMB     188      OSM      H7F      HAL2     0.900000E-01   1.00800           0
     21812 MEMB     188      OSM      H7G      HAL2     0.900000E-01   1.00800           0
     21813 MEMB     188      OSM      C8F      CTL2    -0.180000       12.0110           0
     21814 MEMB     188      OSM      H8F      HAL2     0.900000E-01   1.00800           0
     21815 MEMB     188      OSM      H8G      HAL2     0.900000E-01   1.00800           0
     21816 MEMB     188      OSM      C9F      CEL1    -0.150000       12.0110           0
     21817 MEMB     188      OSM      H9F      HEL1     0.150000       1.00800           0
     21818 MEMB     188      OSM      C10F     CEL1    -0.150000       12.0110           0
     21819 MEMB     188      OSM      H10F     HEL1     0.150000       1.00800           0
     21820 MEMB     188      OSM      C11F     CTL2    -0.180000       12.0110           0
     21821 MEMB     188      OSM      H11F     HAL2     0.900000E-01   1.00800           0
     21822 MEMB     188      OSM      H11G     HAL2     0.900000E-01   1.00800           0
     21823 MEMB     188      OSM      C12F     CTL2    -0.180000       12.0110           0
     21824 MEMB     188      OSM      H12F     HAL2     0.900000E-01   1.00800           0
     21825 MEMB     188      OSM      H12G     HAL2     0.900000E-01   1.00800           0
     21826 MEMB     188      OSM      C13F     CTL2    -0.180000       12.0110           0
     21827 MEMB     188      OSM      H13F     HAL2     0.900000E-01   1.00800           0
     21828 MEMB     188      OSM      H13G     HAL2     0.900000E-01   1.00800           0
     21829 MEMB     188      OSM      C14F     CTL2    -0.180000       12.0110           0
     21830 MEMB     188      OSM      H14F     HAL2     0.900000E-01   1.00800           0
     21831 MEMB     188      OSM      H14G     HAL2     0.900000E-01   1.00800           0
     21832 MEMB     188      OSM      C15F     CTL2    -0.180000       12.0110           0
     21833 MEMB     188      OSM      H15F     HAL2     0.900000E-01   1.00800           0
     21834 MEMB     188      OSM      H15G     HAL2     0.900000E-01   1.00800           0
     21835 MEMB     188      OSM      C16F     CTL2    -0.180000       12.0110           0
     21836 MEMB     188      OSM      H16F     HAL2     0.900000E-01   1.00800           0
     21837 MEMB     188      OSM      H16G     HAL2     0.900000E-01   1.00800           0
     21838 MEMB     188      OSM      C17F     CTL2    -0.180000       12.0110           0
     21839 MEMB     188      OSM      H17F     HAL2     0.900000E-01   1.00800           0
     21840 MEMB     188      OSM      H17G     HAL2     0.900000E-01   1.00800           0
     21841 MEMB     188      OSM      C18F     CTL3    -0.270000       12.0110           0
     21842 MEMB     188      OSM      H18F     HAL3     0.900000E-01   1.00800           0
     21843 MEMB     188      OSM      H18G     HAL3     0.900000E-01   1.00800           0
     21844 MEMB     188      OSM      H18H     HAL3     0.900000E-01   1.00800           0
     21845 MEMB     189      OSM      N        NTL     -0.600000       14.0070           0
     21846 MEMB     189      OSM      C15      CTL5    -0.350000       12.0110           0
     21847 MEMB     189      OSM      H15A     HL       0.250000       1.00800           0
     21848 MEMB     189      OSM      H15B     HL       0.250000       1.00800           0
     21849 MEMB     189      OSM      H15C     HL       0.250000       1.00800           0
     21850 MEMB     189      OSM      C14      CTL5    -0.350000       12.0110           0
     21851 MEMB     189      OSM      H14A     HL       0.250000       1.00800           0
     21852 MEMB     189      OSM      H14B     HL       0.250000       1.00800           0
     21853 MEMB     189      OSM      H14C     HL       0.250000       1.00800           0
     21854 MEMB     189      OSM      C13      CTL5    -0.350000       12.0110           0
     21855 MEMB     189      OSM      H13A     HL       0.250000       1.00800           0
     21856 MEMB     189      OSM      H13B     HL       0.250000       1.00800           0
     21857 MEMB     189      OSM      H13C     HL       0.250000       1.00800           0
     21858 MEMB     189      OSM      C12      CTL2    -0.100000       12.0110           0
     21859 MEMB     189      OSM      H12A     HL       0.250000       1.00800           0
     21860 MEMB     189      OSM      H12B     HL       0.250000       1.00800           0
     21861 MEMB     189      OSM      C11      CTL2    -0.800000E-01   12.0110           0
     21862 MEMB     189      OSM      H11A     HAL2     0.900000E-01   1.00800           0
     21863 MEMB     189      OSM      H11B     HAL2     0.900000E-01   1.00800           0
     21864 MEMB     189      OSM      P        PL        1.50000       30.9740           0
     21865 MEMB     189      OSM      O13      O2L     -0.780000       15.9994           0
     21866 MEMB     189      OSM      O14      O2L     -0.780000       15.9994           0
     21867 MEMB     189      OSM      O11      OSLP    -0.570000       15.9994           0
     21868 MEMB     189      OSM      O12      OSLP    -0.570000       15.9994           0
     21869 MEMB     189      OSM      C1S      CTL2    -0.800000E-01   12.0110           0
     21870 MEMB     189      OSM      H1S      HAL2     0.900000E-01   1.00800           0
     21871 MEMB     189      OSM      H1T      HAL2     0.900000E-01   1.00800           0
     21872 MEMB     189      OSM      NF       NHL     -0.700000       14.0070           0
     21873 MEMB     189      OSM      HNF      H        0.350000       1.00800           0
     21874 MEMB     189      OSM      C2S      CTL1     0.300000       12.0110           0
     21875 MEMB     189      OSM      H2S      HAL1     0.500000E-01   1.00800           0
     21876 MEMB     189      OSM      C3S      CTO1     0.500000       12.0110           0
     21877 MEMB     189      OSM      H3S      HAL1    -0.110000       1.00800           0
     21878 MEMB     189      OSM      O3       OHL     -0.690000       15.9994           0
     21879 MEMB     189      OSM      HO3      HOL      0.300000       1.00800           0
     21880 MEMB     189      OSM      C4S      CEL3    -0.150000       12.0110           0
     21881 MEMB     189      OSM      H4S      HEL1     0.150000       1.00800           0
     21882 MEMB     189      OSM      C5S      CEL3    -0.150000       12.0110           0
     21883 MEMB     189      OSM      H5S      HEL1     0.150000       1.00800           0
     21884 MEMB     189      OSM      C6S      CTL2    -0.180000       12.0110           0
     21885 MEMB     189      OSM      H6S      HAL2     0.900000E-01   1.00800           0
     21886 MEMB     189      OSM      H6T      HAL2     0.900000E-01   1.00800           0
     21887 MEMB     189      OSM      C7S      CTL2    -0.180000       12.0110           0
     21888 MEMB     189      OSM      H7S      HAL2     0.900000E-01   1.00800           0
     21889 MEMB     189      OSM      H7T      HAL2     0.900000E-01   1.00800           0
     21890 MEMB     189      OSM      C8S      CTL2    -0.180000       12.0110           0
     21891 MEMB     189      OSM      H8S      HAL2     0.900000E-01   1.00800           0
     21892 MEMB     189      OSM      H8T      HAL2     0.900000E-01   1.00800           0
     21893 MEMB     189      OSM      C9S      CTL2    -0.180000       12.0110           0
     21894 MEMB     189      OSM      H9S      HAL2     0.900000E-01   1.00800           0
     21895 MEMB     189      OSM      H9T      HAL2     0.900000E-01   1.00800           0
     21896 MEMB     189      OSM      C10S     CTL2    -0.180000       12.0110           0
     21897 MEMB     189      OSM      H10S     HAL2     0.900000E-01   1.00800           0
     21898 MEMB     189      OSM      H10T     HAL2     0.900000E-01   1.00800           0
     21899 MEMB     189      OSM      C11S     CTL2    -0.180000       12.0110           0
     21900 MEMB     189      OSM      H11S     HAL2     0.900000E-01   1.00800           0
     21901 MEMB     189      OSM      H11T     HAL2     0.900000E-01   1.00800           0
     21902 MEMB     189      OSM      C12S     CTL2    -0.180000       12.0110           0
     21903 MEMB     189      OSM      H12S     HAL2     0.900000E-01   1.00800           0
     21904 MEMB     189      OSM      H12T     HAL2     0.900000E-01   1.00800           0
     21905 MEMB     189      OSM      C13S     CTL2    -0.180000       12.0110           0
     21906 MEMB     189      OSM      H13S     HAL2     0.900000E-01   1.00800           0
     21907 MEMB     189      OSM      H13T     HAL2     0.900000E-01   1.00800           0
     21908 MEMB     189      OSM      C14S     CTL2    -0.180000       12.0110           0
     21909 MEMB     189      OSM      H14S     HAL2     0.900000E-01   1.00800           0
     21910 MEMB     189      OSM      H14T     HAL2     0.900000E-01   1.00800           0
     21911 MEMB     189      OSM      C15S     CTL2    -0.180000       12.0110           0
     21912 MEMB     189      OSM      H15S     HAL2     0.900000E-01   1.00800           0
     21913 MEMB     189      OSM      H15T     HAL2     0.900000E-01   1.00800           0
     21914 MEMB     189      OSM      C16S     CTL2    -0.180000       12.0110           0
     21915 MEMB     189      OSM      H16S     HAL2     0.900000E-01   1.00800           0
     21916 MEMB     189      OSM      H16T     HAL2     0.900000E-01   1.00800           0
     21917 MEMB     189      OSM      C17S     CTL2    -0.180000       12.0110           0
     21918 MEMB     189      OSM      H17S     HAL2     0.900000E-01   1.00800           0
     21919 MEMB     189      OSM      H17T     HAL2     0.900000E-01   1.00800           0
     21920 MEMB     189      OSM      C18S     CTL3    -0.270000       12.0110           0
     21921 MEMB     189      OSM      H18S     HAL3     0.900000E-01   1.00800           0
     21922 MEMB     189      OSM      H18T     HAL3     0.900000E-01   1.00800           0
     21923 MEMB     189      OSM      H18U     HAL3     0.900000E-01   1.00800           0
     21924 MEMB     189      OSM      C1F      C        0.550000       12.0110           0
     21925 MEMB     189      OSM      OF       O       -0.600000       15.9994           0
     21926 MEMB     189      OSM      C2F      CTL2    -0.700000E-01   12.0110           0
     21927 MEMB     189      OSM      H2F      HAL2     0.600000E-01   1.00800           0
     21928 MEMB     189      OSM      H2G      HAL2     0.600000E-01   1.00800           0
     21929 MEMB     189      OSM      C3F      CTL2    -0.180000       12.0110           0
     21930 MEMB     189      OSM      H3F      HAL2     0.900000E-01   1.00800           0
     21931 MEMB     189      OSM      H3G      HAL2     0.900000E-01   1.00800           0
     21932 MEMB     189      OSM      C4F      CTL2    -0.180000       12.0110           0
     21933 MEMB     189      OSM      H4F      HAL2     0.900000E-01   1.00800           0
     21934 MEMB     189      OSM      H4G      HAL2     0.900000E-01   1.00800           0
     21935 MEMB     189      OSM      C5F      CTL2    -0.180000       12.0110           0
     21936 MEMB     189      OSM      H5F      HAL2     0.900000E-01   1.00800           0
     21937 MEMB     189      OSM      H5G      HAL2     0.900000E-01   1.00800           0
     21938 MEMB     189      OSM      C6F      CTL2    -0.180000       12.0110           0
     21939 MEMB     189      OSM      H6F      HAL2     0.900000E-01   1.00800           0
     21940 MEMB     189      OSM      H6G      HAL2     0.900000E-01   1.00800           0
     21941 MEMB     189      OSM      C7F      CTL2    -0.180000       12.0110           0
     21942 MEMB     189      OSM      H7F      HAL2     0.900000E-01   1.00800           0
     21943 MEMB     189      OSM      H7G      HAL2     0.900000E-01   1.00800           0
     21944 MEMB     189      OSM      C8F      CTL2    -0.180000       12.0110           0
     21945 MEMB     189      OSM      H8F      HAL2     0.900000E-01   1.00800           0
     21946 MEMB     189      OSM      H8G      HAL2     0.900000E-01   1.00800           0
     21947 MEMB     189      OSM      C9F      CEL1    -0.150000       12.0110           0
     21948 MEMB     189      OSM      H9F      HEL1     0.150000       1.00800           0
     21949 MEMB     189      OSM      C10F     CEL1    -0.150000       12.0110           0
     21950 MEMB     189      OSM      H10F     HEL1     0.150000       1.00800           0
     21951 MEMB     189      OSM      C11F     CTL2    -0.180000       12.0110           0
     21952 MEMB     189      OSM      H11F     HAL2     0.900000E-01   1.00800           0
     21953 MEMB     189      OSM      H11G     HAL2     0.900000E-01   1.00800           0
     21954 MEMB     189      OSM      C12F     CTL2    -0.180000       12.0110           0
     21955 MEMB     189      OSM      H12F     HAL2     0.900000E-01   1.00800           0
     21956 MEMB     189      OSM      H12G     HAL2     0.900000E-01   1.00800           0
     21957 MEMB     189      OSM      C13F     CTL2    -0.180000       12.0110           0
     21958 MEMB     189      OSM      H13F     HAL2     0.900000E-01   1.00800           0
     21959 MEMB     189      OSM      H13G     HAL2     0.900000E-01   1.00800           0
     21960 MEMB     189      OSM      C14F     CTL2    -0.180000       12.0110           0
     21961 MEMB     189      OSM      H14F     HAL2     0.900000E-01   1.00800           0
     21962 MEMB     189      OSM      H14G     HAL2     0.900000E-01   1.00800           0
     21963 MEMB     189      OSM      C15F     CTL2    -0.180000       12.0110           0
     21964 MEMB     189      OSM      H15F     HAL2     0.900000E-01   1.00800           0
     21965 MEMB     189      OSM      H15G     HAL2     0.900000E-01   1.00800           0
     21966 MEMB     189      OSM      C16F     CTL2    -0.180000       12.0110           0
     21967 MEMB     189      OSM      H16F     HAL2     0.900000E-01   1.00800           0
     21968 MEMB     189      OSM      H16G     HAL2     0.900000E-01   1.00800           0
     21969 MEMB     189      OSM      C17F     CTL2    -0.180000       12.0110           0
     21970 MEMB     189      OSM      H17F     HAL2     0.900000E-01   1.00800           0
     21971 MEMB     189      OSM      H17G     HAL2     0.900000E-01   1.00800           0
     21972 MEMB     189      OSM      C18F     CTL3    -0.270000       12.0110           0
     21973 MEMB     189      OSM      H18F     HAL3     0.900000E-01   1.00800           0
     21974 MEMB     189      OSM      H18G     HAL3     0.900000E-01   1.00800           0
     21975 MEMB     189      OSM      H18H     HAL3     0.900000E-01   1.00800           0
     21976 MEMB     190      SAPC     N        NTL     -0.600000       14.0070           0
     21977 MEMB     190      SAPC     C12      CTL2    -0.100000       12.0110           0
     21978 MEMB     190      SAPC     H12A     HL       0.250000       1.00800           0
     21979 MEMB     190      SAPC     H12B     HL       0.250000       1.00800           0
     21980 MEMB     190      SAPC     C13      CTL5    -0.350000       12.0110           0
     21981 MEMB     190      SAPC     H13A     HL       0.250000       1.00800           0
     21982 MEMB     190      SAPC     H13B     HL       0.250000       1.00800           0
     21983 MEMB     190      SAPC     H13C     HL       0.250000       1.00800           0
     21984 MEMB     190      SAPC     C14      CTL5    -0.350000       12.0110           0
     21985 MEMB     190      SAPC     H14A     HL       0.250000       1.00800           0
     21986 MEMB     190      SAPC     H14B     HL       0.250000       1.00800           0
     21987 MEMB     190      SAPC     H14C     HL       0.250000       1.00800           0
     21988 MEMB     190      SAPC     C15      CTL5    -0.350000       12.0110           0
     21989 MEMB     190      SAPC     H15A     HL       0.250000       1.00800           0
     21990 MEMB     190      SAPC     H15B     HL       0.250000       1.00800           0
     21991 MEMB     190      SAPC     H15C     HL       0.250000       1.00800           0
     21992 MEMB     190      SAPC     C11      CTL2    -0.800000E-01   12.0110           0
     21993 MEMB     190      SAPC     H11A     HAL2     0.900000E-01   1.00800           0
     21994 MEMB     190      SAPC     H11B     HAL2     0.900000E-01   1.00800           0
     21995 MEMB     190      SAPC     P        PL        1.50000       30.9740           0
     21996 MEMB     190      SAPC     O13      O2L     -0.780000       15.9994           0
     21997 MEMB     190      SAPC     O14      O2L     -0.780000       15.9994           0
     21998 MEMB     190      SAPC     O12      OSLP    -0.570000       15.9994           0
     21999 MEMB     190      SAPC     O11      OSLP    -0.570000       15.9994           0
     22000 MEMB     190      SAPC     C1       CTL2    -0.800000E-01   12.0110           0
     22001 MEMB     190      SAPC     HA       HAL2     0.900000E-01   1.00800           0
     22002 MEMB     190      SAPC     HB       HAL2     0.900000E-01   1.00800           0
     22003 MEMB     190      SAPC     C2       CTL1     0.170000       12.0110           0
     22004 MEMB     190      SAPC     HS       HAL1     0.900000E-01   1.00800           0
     22005 MEMB     190      SAPC     O21      OSL     -0.490000       15.9994           0
     22006 MEMB     190      SAPC     C21      CL       0.900000       12.0110           0
     22007 MEMB     190      SAPC     O22      OBL     -0.630000       15.9994           0
     22008 MEMB     190      SAPC     C22      CTL2    -0.220000       12.0110           0
     22009 MEMB     190      SAPC     H2R      HAL2     0.900000E-01   1.00800           0
     22010 MEMB     190      SAPC     H2S      HAL2     0.900000E-01   1.00800           0
     22011 MEMB     190      SAPC     C3       CTL2     0.800000E-01   12.0110           0
     22012 MEMB     190      SAPC     HX       HAL2     0.900000E-01   1.00800           0
     22013 MEMB     190      SAPC     HY       HAL2     0.900000E-01   1.00800           0
     22014 MEMB     190      SAPC     O31      OSL     -0.490000       15.9994           0
     22015 MEMB     190      SAPC     C31      CL       0.900000       12.0110           0
     22016 MEMB     190      SAPC     O32      OBL     -0.630000       15.9994           0
     22017 MEMB     190      SAPC     C32      CTL2    -0.220000       12.0110           0
     22018 MEMB     190      SAPC     H2X      HAL2     0.900000E-01   1.00800           0
     22019 MEMB     190      SAPC     H2Y      HAL2     0.900000E-01   1.00800           0
     22020 MEMB     190      SAPC     C23      CTL2    -0.180000       12.0110           0
     22021 MEMB     190      SAPC     H3R      HAL2     0.900000E-01   1.00800           0
     22022 MEMB     190      SAPC     H3S      HAL2     0.900000E-01   1.00800           0
     22023 MEMB     190      SAPC     C24      CTL2    -0.180000       12.0110           0
     22024 MEMB     190      SAPC     H4R      HAL2     0.900000E-01   1.00800           0
     22025 MEMB     190      SAPC     H4S      HAL2     0.900000E-01   1.00800           0
     22026 MEMB     190      SAPC     C25      CEL1    -0.150000       12.0110           0
     22027 MEMB     190      SAPC     H5R      HEL1     0.150000       1.00800           0
     22028 MEMB     190      SAPC     C26      CEL1    -0.150000       12.0110           0
     22029 MEMB     190      SAPC     H6R      HEL1     0.150000       1.00800           0
     22030 MEMB     190      SAPC     C27      CTL2    -0.180000       12.0110           0
     22031 MEMB     190      SAPC     H7R      HAL2     0.900000E-01   1.00800           0
     22032 MEMB     190      SAPC     H7S      HAL2     0.900000E-01   1.00800           0
     22033 MEMB     190      SAPC     C28      CEL1    -0.150000       12.0110           0
     22034 MEMB     190      SAPC     H8R      HEL1     0.150000       1.00800           0
     22035 MEMB     190      SAPC     C29      CEL1    -0.150000       12.0110           0
     22036 MEMB     190      SAPC     H9R      HEL1     0.150000       1.00800           0
     22037 MEMB     190      SAPC     C210     CTL2    -0.180000       12.0110           0
     22038 MEMB     190      SAPC     H10R     HAL2     0.900000E-01   1.00800           0
     22039 MEMB     190      SAPC     H10S     HAL2     0.900000E-01   1.00800           0
     22040 MEMB     190      SAPC     C211     CEL1    -0.150000       12.0110           0
     22041 MEMB     190      SAPC     H11R     HEL1     0.150000       1.00800           0
     22042 MEMB     190      SAPC     C212     CEL1    -0.150000       12.0110           0
     22043 MEMB     190      SAPC     H12R     HEL1     0.150000       1.00800           0
     22044 MEMB     190      SAPC     C213     CTL2    -0.180000       12.0110           0
     22045 MEMB     190      SAPC     H13R     HAL2     0.900000E-01   1.00800           0
     22046 MEMB     190      SAPC     H13S     HAL2     0.900000E-01   1.00800           0
     22047 MEMB     190      SAPC     C214     CEL1    -0.150000       12.0110           0
     22048 MEMB     190      SAPC     H14R     HEL1     0.150000       1.00800           0
     22049 MEMB     190      SAPC     C215     CEL1    -0.150000       12.0110           0
     22050 MEMB     190      SAPC     H15R     HEL1     0.150000       1.00800           0
     22051 MEMB     190      SAPC     C216     CTL2    -0.180000       12.0110           0
     22052 MEMB     190      SAPC     H16R     HAL2     0.900000E-01   1.00800           0
     22053 MEMB     190      SAPC     H16S     HAL2     0.900000E-01   1.00800           0
     22054 MEMB     190      SAPC     C217     CTL2    -0.180000       12.0110           0
     22055 MEMB     190      SAPC     H17R     HAL2     0.900000E-01   1.00800           0
     22056 MEMB     190      SAPC     H17S     HAL2     0.900000E-01   1.00800           0
     22057 MEMB     190      SAPC     C218     CTL2    -0.270000       12.0110           0
     22058 MEMB     190      SAPC     H18R     HAL2     0.900000E-01   1.00800           0
     22059 MEMB     190      SAPC     H18S     HAL2     0.900000E-01   1.00800           0
     22060 MEMB     190      SAPC     C219     CTL2    -0.180000       12.0110           0
     22061 MEMB     190      SAPC     H19R     HAL2     0.900000E-01   1.00800           0
     22062 MEMB     190      SAPC     H19S     HAL2     0.900000E-01   1.00800           0
     22063 MEMB     190      SAPC     C220     CTL3    -0.180000       12.0110           0
     22064 MEMB     190      SAPC     H20R     HAL3     0.900000E-01   1.00800           0
     22065 MEMB     190      SAPC     H20S     HAL3     0.900000E-01   1.00800           0
     22066 MEMB     190      SAPC     H20T     HAL3     0.900000E-01   1.00800           0
     22067 MEMB     190      SAPC     C33      CTL2    -0.180000       12.0110           0
     22068 MEMB     190      SAPC     H3X      HAL2     0.900000E-01   1.00800           0
     22069 MEMB     190      SAPC     H3Y      HAL2     0.900000E-01   1.00800           0
     22070 MEMB     190      SAPC     C34      CTL2    -0.180000       12.0110           0
     22071 MEMB     190      SAPC     H4X      HAL2     0.900000E-01   1.00800           0
     22072 MEMB     190      SAPC     H4Y      HAL2     0.900000E-01   1.00800           0
     22073 MEMB     190      SAPC     C35      CTL2    -0.180000       12.0110           0
     22074 MEMB     190      SAPC     H5X      HAL2     0.900000E-01   1.00800           0
     22075 MEMB     190      SAPC     H5Y      HAL2     0.900000E-01   1.00800           0
     22076 MEMB     190      SAPC     C36      CTL2    -0.180000       12.0110           0
     22077 MEMB     190      SAPC     H6X      HAL2     0.900000E-01   1.00800           0
     22078 MEMB     190      SAPC     H6Y      HAL2     0.900000E-01   1.00800           0
     22079 MEMB     190      SAPC     C37      CTL2    -0.180000       12.0110           0
     22080 MEMB     190      SAPC     H7X      HAL2     0.900000E-01   1.00800           0
     22081 MEMB     190      SAPC     H7Y      HAL2     0.900000E-01   1.00800           0
     22082 MEMB     190      SAPC     C38      CTL2    -0.180000       12.0110           0
     22083 MEMB     190      SAPC     H8X      HAL2     0.900000E-01   1.00800           0
     22084 MEMB     190      SAPC     H8Y      HAL2     0.900000E-01   1.00800           0
     22085 MEMB     190      SAPC     C39      CTL2    -0.180000       12.0110           0
     22086 MEMB     190      SAPC     H9X      HAL2     0.900000E-01   1.00800           0
     22087 MEMB     190      SAPC     H9Y      HAL2     0.900000E-01   1.00800           0
     22088 MEMB     190      SAPC     C310     CTL2    -0.180000       12.0110           0
     22089 MEMB     190      SAPC     H10X     HAL2     0.900000E-01   1.00800           0
     22090 MEMB     190      SAPC     H10Y     HAL2     0.900000E-01   1.00800           0
     22091 MEMB     190      SAPC     C311     CTL2    -0.180000       12.0110           0
     22092 MEMB     190      SAPC     H11X     HAL2     0.900000E-01   1.00800           0
     22093 MEMB     190      SAPC     H11Y     HAL2     0.900000E-01   1.00800           0
     22094 MEMB     190      SAPC     C312     CTL2    -0.180000       12.0110           0
     22095 MEMB     190      SAPC     H12X     HAL2     0.900000E-01   1.00800           0
     22096 MEMB     190      SAPC     H12Y     HAL2     0.900000E-01   1.00800           0
     22097 MEMB     190      SAPC     C313     CTL2    -0.180000       12.0110           0
     22098 MEMB     190      SAPC     H13X     HAL2     0.900000E-01   1.00800           0
     22099 MEMB     190      SAPC     H13Y     HAL2     0.900000E-01   1.00800           0
     22100 MEMB     190      SAPC     C314     CTL2    -0.180000       12.0110           0
     22101 MEMB     190      SAPC     H14X     HAL2     0.900000E-01   1.00800           0
     22102 MEMB     190      SAPC     H14Y     HAL2     0.900000E-01   1.00800           0
     22103 MEMB     190      SAPC     C315     CTL2    -0.180000       12.0110           0
     22104 MEMB     190      SAPC     H15X     HAL2     0.900000E-01   1.00800           0
     22105 MEMB     190      SAPC     H15Y     HAL2     0.900000E-01   1.00800           0
     22106 MEMB     190      SAPC     C316     CTL2    -0.180000       12.0110           0
     22107 MEMB     190      SAPC     H16X     HAL2     0.900000E-01   1.00800           0
     22108 MEMB     190      SAPC     H16Y     HAL2     0.900000E-01   1.00800           0
     22109 MEMB     190      SAPC     C317     CTL2    -0.180000       12.0110           0
     22110 MEMB     190      SAPC     H17X     HAL2     0.900000E-01   1.00800           0
     22111 MEMB     190      SAPC     H17Y     HAL2     0.900000E-01   1.00800           0
     22112 MEMB     190      SAPC     C318     CTL3    -0.270000       12.0110           0
     22113 MEMB     190      SAPC     H18X     HAL3     0.900000E-01   1.00800           0
     22114 MEMB     190      SAPC     H18Y     HAL3     0.900000E-01   1.00800           0
     22115 MEMB     190      SAPC     H18Z     HAL3     0.900000E-01   1.00800           0
     22116 MEMB     191      CHL1     C3       CRL1     0.140000       12.0110           0
     22117 MEMB     191      CHL1     H3       HGA1     0.900000E-01   1.00800           0
     22118 MEMB     191      CHL1     O3       OHL     -0.660000       15.9994           0
     22119 MEMB     191      CHL1     H3'      HOL      0.430000       1.00800           0
     22120 MEMB     191      CHL1     C4       CRL2    -0.180000       12.0110           0
     22121 MEMB     191      CHL1     H4A      HGA2     0.900000E-01   1.00800           0
     22122 MEMB     191      CHL1     H4B      HGA2     0.900000E-01   1.00800           0
     22123 MEMB     191      CHL1     C5       CEL1      0.00000       12.0110           0
     22124 MEMB     191      CHL1     C6       CEL1    -0.150000       12.0110           0
     22125 MEMB     191      CHL1     H6       HEL1     0.150000       1.00800           0
     22126 MEMB     191      CHL1     C7       CRL2    -0.180000       12.0110           0
     22127 MEMB     191      CHL1     H7A      HGA2     0.900000E-01   1.00800           0
     22128 MEMB     191      CHL1     H7B      HGA2     0.900000E-01   1.00800           0
     22129 MEMB     191      CHL1     C8       CRL1    -0.900000E-01   12.0110           0
     22130 MEMB     191      CHL1     H8       HGA1     0.900000E-01   1.00800           0
     22131 MEMB     191      CHL1     C14      CRL1    -0.900000E-01   12.0110           0
     22132 MEMB     191      CHL1     H14      HGA1     0.900000E-01   1.00800           0
     22133 MEMB     191      CHL1     C15      CRL2    -0.180000       12.0110           0
     22134 MEMB     191      CHL1     H15A     HGA2     0.900000E-01   1.00800           0
     22135 MEMB     191      CHL1     H15B     HGA2     0.900000E-01   1.00800           0
     22136 MEMB     191      CHL1     C16      CRL2    -0.180000       12.0110           0
     22137 MEMB     191      CHL1     H16A     HGA2     0.900000E-01   1.00800           0
     22138 MEMB     191      CHL1     H16B     HGA2     0.900000E-01   1.00800           0
     22139 MEMB     191      CHL1     C17      CRL1    -0.900000E-01   12.0110           0
     22140 MEMB     191      CHL1     H17      HGA1     0.900000E-01   1.00800           0
     22141 MEMB     191      CHL1     C13      CRL1      0.00000       12.0110           0
     22142 MEMB     191      CHL1     C18      CTL3    -0.270000       12.0110           0
     22143 MEMB     191      CHL1     H18A     HAL3     0.900000E-01   1.00800           0
     22144 MEMB     191      CHL1     H18B     HAL3     0.900000E-01   1.00800           0
     22145 MEMB     191      CHL1     H18C     HAL3     0.900000E-01   1.00800           0
     22146 MEMB     191      CHL1     C12      CRL2    -0.180000       12.0110           0
     22147 MEMB     191      CHL1     H12A     HGA2     0.900000E-01   1.00800           0
     22148 MEMB     191      CHL1     H12B     HGA2     0.900000E-01   1.00800           0
     22149 MEMB     191      CHL1     C11      CRL2    -0.180000       12.0110           0
     22150 MEMB     191      CHL1     H11A     HGA2     0.900000E-01   1.00800           0
     22151 MEMB     191      CHL1     H11B     HGA2     0.900000E-01   1.00800           0
     22152 MEMB     191      CHL1     C9       CRL1    -0.900000E-01   12.0110           0
     22153 MEMB     191      CHL1     H9       HGA1     0.900000E-01   1.00800           0
     22154 MEMB     191      CHL1     C10      CRL1      0.00000       12.0110           0
     22155 MEMB     191      CHL1     C19      CTL3    -0.270000       12.0110           0
     22156 MEMB     191      CHL1     H19A     HAL3     0.900000E-01   1.00800           0
     22157 MEMB     191      CHL1     H19B     HAL3     0.900000E-01   1.00800           0
     22158 MEMB     191      CHL1     H19C     HAL3     0.900000E-01   1.00800           0
     22159 MEMB     191      CHL1     C1       CRL2    -0.180000       12.0110           0
     22160 MEMB     191      CHL1     H1A      HGA2     0.900000E-01   1.00800           0
     22161 MEMB     191      CHL1     H1B      HGA2     0.900000E-01   1.00800           0
     22162 MEMB     191      CHL1     C2       CRL2    -0.180000       12.0110           0
     22163 MEMB     191      CHL1     H2A      HGA2     0.900000E-01   1.00800           0
     22164 MEMB     191      CHL1     H2B      HGA2     0.900000E-01   1.00800           0
     22165 MEMB     191      CHL1     C20      CTL1    -0.900000E-01   12.0110           0
     22166 MEMB     191      CHL1     H20      HAL1     0.900000E-01   1.00800           0
     22167 MEMB     191      CHL1     C21      CTL3    -0.270000       12.0110           0
     22168 MEMB     191      CHL1     H21A     HAL3     0.900000E-01   1.00800           0
     22169 MEMB     191      CHL1     H21B     HAL3     0.900000E-01   1.00800           0
     22170 MEMB     191      CHL1     H21C     HAL3     0.900000E-01   1.00800           0
     22171 MEMB     191      CHL1     C22      CTL2    -0.180000       12.0110           0
     22172 MEMB     191      CHL1     H22A     HAL2     0.900000E-01   1.00800           0
     22173 MEMB     191      CHL1     H22B     HAL2     0.900000E-01   1.00800           0
     22174 MEMB     191      CHL1     C23      CTL2    -0.180000       12.0110           0
     22175 MEMB     191      CHL1     H23A     HAL2     0.900000E-01   1.00800           0
     22176 MEMB     191      CHL1     H23B     HAL2     0.900000E-01   1.00800           0
     22177 MEMB     191      CHL1     C24      CTL2    -0.180000       12.0110           0
     22178 MEMB     191      CHL1     H24A     HAL2     0.900000E-01   1.00800           0
     22179 MEMB     191      CHL1     H24B     HAL2     0.900000E-01   1.00800           0
     22180 MEMB     191      CHL1     C25      CTL1    -0.900000E-01   12.0110           0
     22181 MEMB     191      CHL1     H25      HAL1     0.900000E-01   1.00800           0
     22182 MEMB     191      CHL1     C26      CTL3    -0.270000       12.0110           0
     22183 MEMB     191      CHL1     H26A     HAL3     0.900000E-01   1.00800           0
     22184 MEMB     191      CHL1     H26B     HAL3     0.900000E-01   1.00800           0
     22185 MEMB     191      CHL1     H26C     HAL3     0.900000E-01   1.00800           0
     22186 MEMB     191      CHL1     C27      CTL3    -0.270000       12.0110           0
     22187 MEMB     191      CHL1     H27A     HAL3     0.900000E-01   1.00800           0
     22188 MEMB     191      CHL1     H27B     HAL3     0.900000E-01   1.00800           0
     22189 MEMB     191      CHL1     H27C     HAL3     0.900000E-01   1.00800           0
     22190 MEMB     192      SOPE     N        NH3L    -0.300000       14.0070           0
     22191 MEMB     192      SOPE     HN1      HCL      0.330000       1.00800           0
     22192 MEMB     192      SOPE     HN2      HCL      0.330000       1.00800           0
     22193 MEMB     192      SOPE     HN3      HCL      0.330000       1.00800           0
     22194 MEMB     192      SOPE     C12      CTL2     0.130000       12.0110           0
     22195 MEMB     192      SOPE     H12A     HAL2     0.900000E-01   1.00800           0
     22196 MEMB     192      SOPE     H12B     HAL2     0.900000E-01   1.00800           0
     22197 MEMB     192      SOPE     C11      CTL2    -0.800000E-01   12.0110           0
     22198 MEMB     192      SOPE     H11A     HAL2     0.900000E-01   1.00800           0
     22199 MEMB     192      SOPE     H11B     HAL2     0.900000E-01   1.00800           0
     22200 MEMB     192      SOPE     P        PL        1.50000       30.9740           0
     22201 MEMB     192      SOPE     O13      O2L     -0.780000       15.9994           0
     22202 MEMB     192      SOPE     O14      O2L     -0.780000       15.9994           0
     22203 MEMB     192      SOPE     O12      OSLP    -0.570000       15.9994           0
     22204 MEMB     192      SOPE     O11      OSLP    -0.570000       15.9994           0
     22205 MEMB     192      SOPE     C1       CTL2    -0.800000E-01   12.0110           0
     22206 MEMB     192      SOPE     HA       HAL2     0.900000E-01   1.00800           0
     22207 MEMB     192      SOPE     HB       HAL2     0.900000E-01   1.00800           0
     22208 MEMB     192      SOPE     C2       CTL1     0.170000       12.0110           0
     22209 MEMB     192      SOPE     HS       HAL1     0.900000E-01   1.00800           0
     22210 MEMB     192      SOPE     O21      OSL     -0.490000       15.9994           0
     22211 MEMB     192      SOPE     C21      CL       0.900000       12.0110           0
     22212 MEMB     192      SOPE     O22      OBL     -0.630000       15.9994           0
     22213 MEMB     192      SOPE     C22      CTL2    -0.220000       12.0110           0
     22214 MEMB     192      SOPE     H2R      HAL2     0.900000E-01   1.00800           0
     22215 MEMB     192      SOPE     H2S      HAL2     0.900000E-01   1.00800           0
     22216 MEMB     192      SOPE     C3       CTL2     0.800000E-01   12.0110           0
     22217 MEMB     192      SOPE     HX       HAL2     0.900000E-01   1.00800           0
     22218 MEMB     192      SOPE     HY       HAL2     0.900000E-01   1.00800           0
     22219 MEMB     192      SOPE     O31      OSL     -0.490000       15.9994           0
     22220 MEMB     192      SOPE     C31      CL       0.900000       12.0110           0
     22221 MEMB     192      SOPE     O32      OBL     -0.630000       15.9994           0
     22222 MEMB     192      SOPE     C32      CTL2    -0.220000       12.0110           0
     22223 MEMB     192      SOPE     H2X      HAL2     0.900000E-01   1.00800           0
     22224 MEMB     192      SOPE     H2Y      HAL2     0.900000E-01   1.00800           0
     22225 MEMB     192      SOPE     C23      CTL2    -0.180000       12.0110           0
     22226 MEMB     192      SOPE     H3R      HAL2     0.900000E-01   1.00800           0
     22227 MEMB     192      SOPE     H3S      HAL2     0.900000E-01   1.00800           0
     22228 MEMB     192      SOPE     C24      CTL2    -0.180000       12.0110           0
     22229 MEMB     192      SOPE     H4R      HAL2     0.900000E-01   1.00800           0
     22230 MEMB     192      SOPE     H4S      HAL2     0.900000E-01   1.00800           0
     22231 MEMB     192      SOPE     C25      CTL2    -0.180000       12.0110           0
     22232 MEMB     192      SOPE     H5R      HAL2     0.900000E-01   1.00800           0
     22233 MEMB     192      SOPE     H5S      HAL2     0.900000E-01   1.00800           0
     22234 MEMB     192      SOPE     C26      CTL2    -0.180000       12.0110           0
     22235 MEMB     192      SOPE     H6R      HAL2     0.900000E-01   1.00800           0
     22236 MEMB     192      SOPE     H6S      HAL2     0.900000E-01   1.00800           0
     22237 MEMB     192      SOPE     C27      CTL2    -0.180000       12.0110           0
     22238 MEMB     192      SOPE     H7R      HAL2     0.900000E-01   1.00800           0
     22239 MEMB     192      SOPE     H7S      HAL2     0.900000E-01   1.00800           0
     22240 MEMB     192      SOPE     C28      CTL2    -0.180000       12.0110           0
     22241 MEMB     192      SOPE     H8R      HAL2     0.900000E-01   1.00800           0
     22242 MEMB     192      SOPE     H8S      HAL2     0.900000E-01   1.00800           0
     22243 MEMB     192      SOPE     C29      CEL1    -0.150000       12.0110           0
     22244 MEMB     192      SOPE     H91      HEL1     0.150000       1.00800           0
     22245 MEMB     192      SOPE     C210     CEL1    -0.150000       12.0110           0
     22246 MEMB     192      SOPE     H101     HEL1     0.150000       1.00800           0
     22247 MEMB     192      SOPE     C211     CTL2    -0.180000       12.0110           0
     22248 MEMB     192      SOPE     H11R     HAL2     0.900000E-01   1.00800           0
     22249 MEMB     192      SOPE     H11S     HAL2     0.900000E-01   1.00800           0
     22250 MEMB     192      SOPE     C212     CTL2    -0.180000       12.0110           0
     22251 MEMB     192      SOPE     H12R     HAL2     0.900000E-01   1.00800           0
     22252 MEMB     192      SOPE     H12S     HAL2     0.900000E-01   1.00800           0
     22253 MEMB     192      SOPE     C213     CTL2    -0.180000       12.0110           0
     22254 MEMB     192      SOPE     H13R     HAL2     0.900000E-01   1.00800           0
     22255 MEMB     192      SOPE     H13S     HAL2     0.900000E-01   1.00800           0
     22256 MEMB     192      SOPE     C214     CTL2    -0.180000       12.0110           0
     22257 MEMB     192      SOPE     H14R     HAL2     0.900000E-01   1.00800           0
     22258 MEMB     192      SOPE     H14S     HAL2     0.900000E-01   1.00800           0
     22259 MEMB     192      SOPE     C215     CTL2    -0.180000       12.0110           0
     22260 MEMB     192      SOPE     H15R     HAL2     0.900000E-01   1.00800           0
     22261 MEMB     192      SOPE     H15S     HAL2     0.900000E-01   1.00800           0
     22262 MEMB     192      SOPE     C216     CTL2    -0.180000       12.0110           0
     22263 MEMB     192      SOPE     H16R     HAL2     0.900000E-01   1.00800           0
     22264 MEMB     192      SOPE     H16S     HAL2     0.900000E-01   1.00800           0
     22265 MEMB     192      SOPE     C217     CTL2    -0.180000       12.0110           0
     22266 MEMB     192      SOPE     H17R     HAL2     0.900000E-01   1.00800           0
     22267 MEMB     192      SOPE     H17S     HAL2     0.900000E-01   1.00800           0
     22268 MEMB     192      SOPE     C218     CTL3    -0.270000       12.0110           0
     22269 MEMB     192      SOPE     H18R     HAL3     0.900000E-01   1.00800           0
     22270 MEMB     192      SOPE     H18S     HAL3     0.900000E-01   1.00800           0
     22271 MEMB     192      SOPE     H18T     HAL3     0.900000E-01   1.00800           0
     22272 MEMB     192      SOPE     C33      CTL2    -0.180000       12.0110           0
     22273 MEMB     192      SOPE     H3X      HAL2     0.900000E-01   1.00800           0
     22274 MEMB     192      SOPE     H3Y      HAL2     0.900000E-01   1.00800           0
     22275 MEMB     192      SOPE     C34      CTL2    -0.180000       12.0110           0
     22276 MEMB     192      SOPE     H4X      HAL2     0.900000E-01   1.00800           0
     22277 MEMB     192      SOPE     H4Y      HAL2     0.900000E-01   1.00800           0
     22278 MEMB     192      SOPE     C35      CTL2    -0.180000       12.0110           0
     22279 MEMB     192      SOPE     H5X      HAL2     0.900000E-01   1.00800           0
     22280 MEMB     192      SOPE     H5Y      HAL2     0.900000E-01   1.00800           0
     22281 MEMB     192      SOPE     C36      CTL2    -0.180000       12.0110           0
     22282 MEMB     192      SOPE     H6X      HAL2     0.900000E-01   1.00800           0
     22283 MEMB     192      SOPE     H6Y      HAL2     0.900000E-01   1.00800           0
     22284 MEMB     192      SOPE     C37      CTL2    -0.180000       12.0110           0
     22285 MEMB     192      SOPE     H7X      HAL2     0.900000E-01   1.00800           0
     22286 MEMB     192      SOPE     H7Y      HAL2     0.900000E-01   1.00800           0
     22287 MEMB     192      SOPE     C38      CTL2    -0.180000       12.0110           0
     22288 MEMB     192      SOPE     H8X      HAL2     0.900000E-01   1.00800           0
     22289 MEMB     192      SOPE     H8Y      HAL2     0.900000E-01   1.00800           0
     22290 MEMB     192      SOPE     C39      CTL2    -0.180000       12.0110           0
     22291 MEMB     192      SOPE     H9X      HAL2     0.900000E-01   1.00800           0
     22292 MEMB     192      SOPE     H9Y      HAL2     0.900000E-01   1.00800           0
     22293 MEMB     192      SOPE     C310     CTL2    -0.180000       12.0110           0
     22294 MEMB     192      SOPE     H10X     HAL2     0.900000E-01   1.00800           0
     22295 MEMB     192      SOPE     H10Y     HAL2     0.900000E-01   1.00800           0
     22296 MEMB     192      SOPE     C311     CTL2    -0.180000       12.0110           0
     22297 MEMB     192      SOPE     H11X     HAL2     0.900000E-01   1.00800           0
     22298 MEMB     192      SOPE     H11Y     HAL2     0.900000E-01   1.00800           0
     22299 MEMB     192      SOPE     C312     CTL2    -0.180000       12.0110           0
     22300 MEMB     192      SOPE     H12X     HAL2     0.900000E-01   1.00800           0
     22301 MEMB     192      SOPE     H12Y     HAL2     0.900000E-01   1.00800           0
     22302 MEMB     192      SOPE     C313     CTL2    -0.180000       12.0110           0
     22303 MEMB     192      SOPE     H13X     HAL2     0.900000E-01   1.00800           0
     22304 MEMB     192      SOPE     H13Y     HAL2     0.900000E-01   1.00800           0
     22305 MEMB     192      SOPE     C314     CTL2    -0.180000       12.0110           0
     22306 MEMB     192      SOPE     H14X     HAL2     0.900000E-01   1.00800           0
     22307 MEMB     192      SOPE     H14Y     HAL2     0.900000E-01   1.00800           0
     22308 MEMB     192      SOPE     C315     CTL2    -0.180000       12.0110           0
     22309 MEMB     192      SOPE     H15X     HAL2     0.900000E-01   1.00800           0
     22310 MEMB     192      SOPE     H15Y     HAL2     0.900000E-01   1.00800           0
     22311 MEMB     192      SOPE     C316     CTL2    -0.180000       12.0110           0
     22312 MEMB     192      SOPE     H16X     HAL2     0.900000E-01   1.00800           0
     22313 MEMB     192      SOPE     H16Y     HAL2     0.900000E-01   1.00800           0
     22314 MEMB     192      SOPE     C317     CTL2    -0.180000       12.0110           0
     22315 MEMB     192      SOPE     H17X     HAL2     0.900000E-01   1.00800           0
     22316 MEMB     192      SOPE     H17Y     HAL2     0.900000E-01   1.00800           0
     22317 MEMB     192      SOPE     C318     CTL3    -0.270000       12.0110           0
     22318 MEMB     192      SOPE     H18X     HAL3     0.900000E-01   1.00800           0
     22319 MEMB     192      SOPE     H18Y     HAL3     0.900000E-01   1.00800           0
     22320 MEMB     192      SOPE     H18Z     HAL3     0.900000E-01   1.00800           0

     22356 !NBOND: bonds
         1         3         1         2         3         4         1        47
        47        48        47        49        47        44        44        45
        44        46         1         5         5         6         5         7
         5         8         8        39        39        44        39        40
        40        41        40        42        40        43         8         9
         9        10         9        11        11        12        11        13
        11        14        14        15        14        37        37        38
        37        39        14        16        16        17        16        26
        26        31        31        32        31        33        31        34
        34        35        34        36        34        37        26        27
        27        28        27        29        27        30        16        18
        18        19        18        20        18        21        21        22
        21        23        21        24        24        25        24        26
        24        50        50        51        50        52        52        53
        52        54        52        55        50        56        56        57
        56        58        56        59        59        60        59        61
        59        62        62        63        62        64        62        65
        65        66        65        67        67        68        67        69
        67        70        65        71        71        72        71        73
        71        74        75        76        75        80        75        84
        76        77        76        78        76        79        80        81
        80        82        80        83        84        85        84        86
        84        87        75        88        88        89        88        90
        88        91        91        92        91        93        91        97
        98        99        97        94        94        98        94        95
        94        96        99       100        99       101        99       102
       102       103       102       110       102       104       110       111
       110       112       110       113       104       105       105       107
       105       106       107       108       107       109       107       119
       119       120       119       121       119       122       122       123
       122       124       122       125       125       126       125       127
       125       128       128       129       128       130       128       131
       131       132       131       133       131       134       134       135
       134       136       134       137       137       138       137       139
       139       140       139       141       141       142       141       143
       141       144       144       145       144       146       146       147
       146       148       148       149       148       150       148       151
       151       152       151       153       151       154       154       155
       154       156       154       157       157       158       157       159
       157       160       160       161       160       162       160       163
       113       114       114       116       114       115       116       117
       116       118       116       164       164       165       164       166
       164       167       167       168       167       169       167       170
       170       171       170       172       170       173       173       174
       173       175       173       176       176       177       176       178
       176       179       179       180       179       181       179       182
       182       183       182       184       182       185       185       186
       185       187       185       188       188       189       188       190
       188       191       191       192       191       193       191       194
       194       195       194       196       194       197       197       198
       197       199       197       200       200       201       200       202
       200       203       203       204       203       205       203       206
       206       207       206       208       206       209       209       210
       209       211       209       212       213       217       213       221
       213       225       217       218       217       219       217       220
       221       222       221       223       221       224       225       226
       225       227       225       228       213       214       214       215
       214       216       214       229       229       230       229       231
       229       235       236       237       235       232       232       236
       232       233       232       234       237       238       237       239
       237       240       240       241       240       248       240       242
       248       249       248       250       248       251       242       243
       243       245       243       244       245       246       245       247
       245       257       257       258       257       259       257       260
       260       261       260       262       260       263       263       264
       263       265       263       266       266       267       266       268
       266       269       269       270       269       271       269       272
       272       273       272       274       272       275       275       276
       275       277       277       278       277       279       279       280
       279       281       279       282       282       283       282       284
       282       285       285       286       285       287       285       288
       288       289       288       290       288       291       291       292
       291       293       291       294       294       295       294       296
       294       297       297       298       297       299       297       300
       300       301       300       302       300       303       251       252
       252       254       252       253       254       255       254       256
       254       304       304       305       304       306       304       307
       307       308       307       309       307       310       310       311
       310       312       310       313       313       314       313       315
       313       316       316       317       316       318       316       319
       319       320       319       321       319       322       322       323
       322       324       322       325       325       326       325       327
       325       328       328       329       328       330       328       331
       331       332       331       333       331       334       334       335
       334       336       334       337       337       338       337       339
       337       340       340       341       340       342       340       343
       343       344       343       345       343       346       347       348
       347       352       347       356       348       349       348       350
       348       351       352       353       352       354       352       355
       356       357       356       358       356       359       347       360
       360       361       360       362       360       363       363       364
       363       365       363       369       370       371       369       366
       366       370       366       367       366       368       371       372
       371       373       371       374       374       375       374       382
       374       376       382       383       382       384       382       385
       376       377       377       379       377       378       379       380
       379       381       379       391       391       392       391       393
       391       394       394       395       394       396       394       397
       397       398       397       399       397       400       400       401
       400       402       400       403       403       404       403       405
       403       406       406       407       406       408       406       409
       409       410       409       411       411       412       411       413
       413       414       413       415       413       416       416       417
       416       418       418       419       418       420       420       421
       420       422       420       423       423       424       423       425
       423       426       426       427       426       428       426       429
       429       430       429       431       429       432       432       433
       432       434       432       435       385       386       386       388
       386       387       388       389       388       390       388       436
       436       437       436       438       436       439       439       440
       439       441       439       442       442       443       442       444
       442       445       445       446       445       447       445       448
       448       449       448       450       448       451       451       452
       451       453       451       454       454       455       454       456
       454       457       457       458       457       459       457       460
       460       461       460       462       460       463       463       464
       463       465       463       466       466       467       466       468
       466       469       469       470       469       471       469       472
       472       473       472       474       472       475       475       476
       475       477       475       478       478       479       478       480
       478       481       481       482       481       483       481       484
       560       561       560       562       560       563       560       557
       557       558       557       559       557       554       554       555
       554       556       554       551       551       552       551       553
       551       548       548       549       548       550       548       545
       545       546       545       547       545       542       542       543
       542       544       542       539       539       540       539       541
       539       536       536       537       536       538       536       533
       533       534       533       535       533       530       530       531
       530       532       530       527       527       528       527       529
       527       524       524       525       524       526       524       522
       522       523       520       521       520       516       516       517
       516       518       518       519       516       514       514       515
       514       509       509       510       509       511       509       507
       507       504       508       504       505       504       506       504
       508       501       501       502       501       503       501       498
       498       499       498       500       498       485       485       494
       485       490       485       486       494       495       494       496
       494       497       490       491       490       492       490       493
       486       487       486       488       486       489       514       512
       512       513       512       564       564       566       566       567
       566       568       566       569       569       570       569       571
       569       572       572       573       572       574       572       575
       575       576       575       577       575       578       578       579
       578       580       578       581       581       582       581       583
       581       584       584       585       584       586       584       587
       587       588       589       590       589       591       591       592
       591       593       591       594       594       595       594       596
       594       597       597       598       597       599       597       600
       600       601       600       602       600       603       603       604
       603       605       603       606       606       607       606       608
       606       609       609       610       609       611       609       612
       612       613       612       614       612       615       520       522
       587       589       564       565       616       618       616       617
       618       619       616       662       662       663       662       664
       662       659       659       660       659       661       616       620
       620       621       620       622       620       623       623       654
       654       659       654       655       655       656       655       657
       655       658       623       624       624       625       624       626
       626       627       626       628       626       629       629       630
       629       652       652       653       652       654       629       631
       631       632       631       641       641       646       646       647
       646       648       646       649       649       650       649       651
       649       652       641       642       642       643       642       644
       642       645       631       633       633       634       633       635
       633       636       636       637       636       638       636       639
       639       640       639       641       639       665       665       666
       665       667       667       668       667       669       667       670
       665       671       671       672       671       673       671       674
       674       675       674       676       674       677       677       678
       677       679       677       680       680       681       680       682
       682       683       682       684       682       685       680       686
       686       687       686       688       686       689       765       766
       765       767       765       768       765       762       762       763
       762       764       762       759       759       760       759       761
       759       756       756       757       756       758       756       753
       753       754       753       755       753       750       750       751
       750       752       750       747       747       748       747       749
       747       744       744       745       744       746       744       741
       741       742       741       743       741       738       738       739
       738       740       738       735       735       736       735       737
       735       732       732       733       732       734       732       729
       729       730       729       731       729       727       727       728
       725       726       725       721       721       722       721       723
       723       724       721       719       719       720       719       714
       714       715       714       716       714       712       712       709
       713       709       710       709       711       709       713       706
       706       707       706       708       706       703       703       704
       703       705       703       690       690       699       690       695
       690       691       699       700       699       701       699       702
       695       696       695       697       695       698       691       692
       691       693       691       694       719       717       717       718
       717       769       769       771       771       772       771       773
       771       774       774       775       774       776       774       777
       777       778       777       779       777       780       780       781
       780       782       780       783       783       784       783       785
       783       786       786       787       786       788       786       789
       789       790       789       791       789       792       792       793
       794       795       794       796       796       797       796       798
       796       799       799       800       799       801       799       802
       802       803       802       804       802       805       805       806
       805       807       805       808       808       809       808       810
       808       811       811       812       811       813       811       814
       814       815       814       816       814       817       817       818
       817       819       817       820       725       727       792       794
       769       770       821       823       821       822       823       824
       821       867       867       868       867       869       867       864
       864       865       864       866       821       825       825       826
       825       827       825       828       828       859       859       864
       859       860       860       861       860       862       860       863
       828       829       829       830       829       831       831       832
       831       833       831       834       834       835       834       857
       857       858       857       859       834       836       836       837
       836       846       846       851       851       852       851       853
       851       854       854       855       854       856       854       857
       846       847       847       848       847       849       847       850
       836       838       838       839       838       840       838       841
       841       842       841       843       841       844       844       845
       844       846       844       870       870       871       870       872
       872       873       872       874       872       875       870       876
       876       877       876       878       876       879       879       880
       879       881       879       882       882       883       882       884
       882       885       885       886       885       887       887       888
       887       889       887       890       885       891       891       892
       891       893       891       894       970       971       970       972
       970       973       970       967       967       968       967       969
       967       964       964       965       964       966       964       961
       961       962       961       963       961       958       958       959
       958       960       958       955       955       956       955       957
       955       952       952       953       952       954       952       949
       949       950       949       951       949       946       946       947
       946       948       946       943       943       944       943       945
       943       940       940       941       940       942       940       937
       937       938       937       939       937       934       934       935
       934       936       934       932       932       933       930       931
       930       926       926       927       926       928       928       929
       926       924       924       925       924       919       919       920
       919       921       919       917       917       914       918       914
       915       914       916       914       918       911       911       912
       911       913       911       908       908       909       908       910
       908       895       895       904       895       900       895       896
       904       905       904       906       904       907       900       901
       900       902       900       903       896       897       896       898
       896       899       924       922       922       923       922       974
       974       976       976       977       976       978       976       979
       979       980       979       981       979       982       982       983
       982       984       982       985       985       986       985       987
       985       988       988       989       988       990       988       991
       991       992       991       993       991       994       994       995
       994       996       994       997       997       998       999      1000
       999      1001      1001      1002      1001      1003      1001      1004
      1004      1005      1004      1006      1004      1007      1007      1008
      1007      1009      1007      1010      1010      1011      1010      1012
      1010      1013      1013      1014      1013      1015      1013      1016
      1016      1017      1016      1018      1016      1019      1019      1020
      1019      1021      1019      1022      1022      1023      1022      1024
      1022      1025       930       932       997       999       974       975
      1101      1102      1101      1103      1101      1104      1101      1098
      1098      1099      1098      1100      1098      1095      1095      1096
      1095      1097      1095      1092      1092      1093      1092      1094
      1092      1089      1089      1090      1089      1091      1089      1086
      1086      1087      1086      1088      1086      1083      1083      1084
      1083      1085      1083      1080      1080      1081      1080      1082
      1080      1077      1077      1078      1077      1079      1077      1074
      1074      1075      1074      1076      1074      1071      1071      1072
      1071      1073      1071      1068      1068      1069      1068      1070
      1068      1065      1065      1066      1065      1067      1065      1063
      1063      1064      1061      1062      1061      1057      1057      1058
      1057      1059      1059      1060      1057      1055      1055      1056
      1055      1050      1050      1051      1050      1052      1050      1048
      1048      1045      1049      1045      1046      1045      1047      1045
      1049      1042      1042      1043      1042      1044      1042      1039
      1039      1040      1039      1041      1039      1026      1026      1035
      1026      1031      1026      1027      1035      1036      1035      1037
      1035      1038      1031      1032      1031      1033      1031      1034
      1027      1028      1027      1029      1027      1030      1055      1053
      1053      1054      1053      1105      1105      1107      1107      1108
      1107      1109      1107      1110      1110      1111      1110      1112
      1110      1113      1113      1114      1113      1115      1113      1116
      1116      1117      1116      1118      1116      1119      1119      1120
      1119      1121      1119      1122      1122      1123      1122      1124
      1122      1125      1125      1126      1125      1127      1125      1128
      1128      1129      1130      1131      1130      1132      1132      1133
      1132      1134      1132      1135      1135      1136      1135      1137
      1135      1138      1138      1139      1138      1140      1138      1141
      1141      1142      1141      1143      1141      1144      1144      1145
      1144      1146      1144      1147      1147      1148      1147      1149
      1147      1150      1150      1151      1150      1152      1150      1153
      1153      1154      1153      1155      1153      1156      1061      1063
      1128      1130      1105      1106      1157      1159      1157      1158
      1159      1160      1157      1203      1203      1204      1203      1205
      1203      1200      1200      1201      1200      1202      1157      1161
      1161      1162      1161      1163      1161      1164      1164      1195
      1195      1200      1195      1196      1196      1197      1196      1198
      1196      1199      1164      1165      1165      1166      1165      1167
      1167      1168      1167      1169      1167      1170      1170      1171
      1170      1193      1193      1194      1193      1195      1170      1172
      1172      1173      1172      1182      1182      1187      1187      1188
      1187      1189      1187      1190      1190      1191      1190      1192
      1190      1193      1182      1183      1183      1184      1183      1185
      1183      1186      1172      1174      1174      1175      1174      1176
      1174      1177      1177      1178      1177      1179      1177      1180
      1180      1181      1180      1182      1180      1206      1206      1207
      1206      1208      1208      1209      1208      1210      1208      1211
      1206      1212      1212      1213      1212      1214      1212      1215
      1215      1216      1215      1217      1215      1218      1218      1219
      1218      1220      1218      1221      1221      1222      1221      1223
      1223      1224      1223      1225      1223      1226      1221      1227
      1227      1228      1227      1229      1227      1230      1231      1233
      1231      1232      1233      1234      1231      1277      1277      1278
      1277      1279      1277      1274      1274      1275      1274      1276
      1231      1235      1235      1236      1235      1237      1235      1238
      1238      1269      1269      1274      1269      1270      1270      1271
      1270      1272      1270      1273      1238      1239      1239      1240
      1239      1241      1241      1242      1241      1243      1241      1244
      1244      1245      1244      1267      1267      1268      1267      1269
      1244      1246      1246      1247      1246      1256      1256      1261
      1261      1262      1261      1263      1261      1264      1264      1265
      1264      1266      1264      1267      1256      1257      1257      1258
      1257      1259      1257      1260      1246      1248      1248      1249
      1248      1250      1248      1251      1251      1252      1251      1253
      1251      1254      1254      1255      1254      1256      1254      1280
      1280      1281      1280      1282      1282      1283      1282      1284
      1282      1285      1280      1286      1286      1287      1286      1288
      1286      1289      1289      1290      1289      1291      1289      1292
      1292      1293      1292      1294      1292      1295      1295      1296
      1295      1297      1297      1298      1297      1299      1297      1300
      1295      1301      1301      1302      1301      1303      1301      1304
      1305      1309      1305      1313      1305      1317      1309      1310
      1309      1311      1309      1312      1313      1314      1313      1315
      1313      1316      1317      1318      1317      1319      1317      1320
      1305      1306      1306      1307      1306      1308      1306      1321
      1321      1322      1321      1323      1321      1327      1328      1329
      1327      1324      1324      1328      1324      1325      1324      1326
      1329      1330      1329      1331      1329      1332      1332      1333
      1332      1340      1332      1334      1340      1341      1340      1342
      1340      1343      1334      1335      1335      1337      1335      1336
      1337      1338      1337      1339      1337      1349      1349      1350
      1349      1351      1349      1352      1352      1353      1352      1354
      1352      1355      1355      1356      1355      1357      1357      1358
      1357      1359      1359      1360      1359      1361      1359      1362
      1362      1363      1362      1364      1364      1365      1364      1366
      1366      1367      1366      1368      1366      1369      1369      1370
      1369      1371      1371      1372      1371      1373      1373      1374
      1373      1375      1373      1376      1376      1377      1376      1378
      1378      1379      1378      1380      1380      1381      1380      1382
      1380      1383      1383      1384      1383      1385      1383      1386
      1386      1387      1386      1388      1386      1389      1389      1390
      1389      1391      1389      1392      1392      1393      1392      1394
      1392      1395      1343      1344      1344      1346      1344      1345
      1346      1347      1346      1348      1346      1396      1396      1397
      1396      1398      1396      1399      1399      1400      1399      1401
      1399      1402      1402      1403      1402      1404      1402      1405
      1405      1406      1405      1407      1405      1408      1408      1409
      1408      1410      1408      1411      1411      1412      1411      1413
      1411      1414      1414      1415      1414      1416      1414      1417
      1417      1418      1417      1419      1417      1420      1420      1421
      1420      1422      1420      1423      1423      1424      1423      1425
      1423      1426      1426      1427      1426      1428      1426      1429
      1429      1430      1429      1431      1429      1432      1432      1433
      1432      1434      1432      1435      1435      1436      1435      1437
      1435      1438      1438      1439      1438      1440      1438      1441
      1441      1442      1441      1443      1441      1444      1445      1446
      1445      1450      1445      1454      1446      1447      1446      1448
      1446      1449      1450      1451      1450      1452      1450      1453
      1454      1455      1454      1456      1454      1457      1445      1458
      1458      1459      1458      1460      1458      1461      1461      1462
      1461      1463      1461      1467      1468      1469      1467      1464
      1464      1468      1464      1465      1464      1466      1469      1470
      1469      1471      1469      1472      1472      1473      1472      1480
      1472      1474      1480      1481      1480      1482      1480      1483
      1474      1475      1475      1477      1475      1476      1477      1478
      1477      1479      1477      1489      1489      1490      1489      1491
      1489      1492      1492      1493      1492      1494      1492      1495
      1495      1496      1495      1497      1495      1498      1498      1499
      1498      1500      1498      1501      1501      1502      1501      1503
      1501      1504      1504      1505      1504      1506      1504      1507
      1507      1508      1507      1509      1509      1510      1509      1511
      1511      1512      1511      1513      1511      1514      1514      1515
      1514      1516      1516      1517      1516      1518      1518      1519
      1518      1520      1518      1521      1521      1522      1521      1523
      1521      1524      1524      1525      1524      1526      1524      1527
      1527      1528      1527      1529      1527      1530      1530      1531
      1530      1532      1530      1533      1483      1484      1484      1486
      1484      1485      1486      1487      1486      1488      1486      1534
      1534      1535      1534      1536      1534      1537      1537      1538
      1537      1539      1537      1540      1540      1541      1540      1542
      1540      1543      1543      1544      1543      1545      1543      1546
      1546      1547      1546      1548      1546      1549      1549      1550
      1549      1551      1549      1552      1552      1553      1552      1554
      1552      1555      1555      1556      1555      1557      1555      1558
      1558      1559      1558      1560      1558      1561      1561      1562
      1561      1563      1561      1564      1564      1565      1564      1566
      1564      1567      1567      1568      1567      1569      1567      1570
      1570      1571      1570      1572      1570      1573      1573      1574
      1573      1575      1573      1576      1576      1577      1576      1578
      1576      1579      1579      1580      1579      1581      1579      1582
      1583      1587      1583      1591      1583      1595      1587      1588
      1587      1589      1587      1590      1591      1592      1591      1593
      1591      1594      1595      1596      1595      1597      1595      1598
      1583      1584      1584      1585      1584      1586      1584      1599
      1599      1600      1599      1601      1599      1605      1606      1607
      1605      1602      1602      1606      1602      1603      1602      1604
      1607      1608      1607      1609      1607      1610      1610      1611
      1610      1618      1610      1612      1618      1619      1618      1620
      1618      1621      1612      1613      1613      1615      1613      1614
      1615      1616      1615      1617      1615      1627      1627      1628
      1627      1629      1627      1630      1630      1631      1630      1632
      1630      1633      1633      1634      1633      1635      1633      1636
      1636      1637      1636      1638      1636      1639      1639      1640
      1639      1641      1639      1642      1642      1643      1642      1644
      1642      1645      1645      1646      1645      1647      1647      1648
      1647      1649      1649      1650      1649      1651      1649      1652
      1652      1653      1652      1654      1652      1655      1655      1656
      1655      1657      1655      1658      1658      1659      1658      1660
      1658      1661      1661      1662      1661      1663      1661      1664
      1664      1665      1664      1666      1664      1667      1667      1668
      1667      1669      1667      1670      1670      1671      1670      1672
      1670      1673      1621      1622      1622      1624      1622      1623
      1624      1625      1624      1626      1624      1674      1674      1675
      1674      1676      1674      1677      1677      1678      1677      1679
      1677      1680      1680      1681      1680      1682      1680      1683
      1683      1684      1683      1685      1683      1686      1686      1687
      1686      1688      1686      1689      1689      1690      1689      1691
      1689      1692      1692      1693      1692      1694      1692      1695
      1695      1696      1695      1697      1695      1698      1698      1699
      1698      1700      1698      1701      1701      1702      1701      1703
      1701      1704      1704      1705      1704      1706      1704      1707
      1707      1708      1707      1709      1707      1710      1710      1711
      1710      1712      1710      1713      1713      1714      1713      1715
      1713      1716      1717      1718      1717      1719      1717      1720
      1717      1721      1721      1722      1721      1723      1721      1724
      1724      1725      1724      1726      1724      1730      1732      1731
      1730      1727      1727      1731      1727      1728      1727      1729
      1732      1733      1732      1734      1732      1735      1735      1736
      1735      1743      1735      1737      1743      1744      1743      1745
      1743      1746      1737      1738      1738      1740      1738      1739
      1740      1741      1740      1742      1740      1752      1752      1753
      1752      1754      1752      1755      1755      1756      1755      1757
      1755      1758      1758      1759      1758      1760      1758      1761
      1761      1762      1761      1763      1761      1764      1764      1765
      1764      1766      1764      1767      1767      1768      1767      1769
      1767      1770      1770      1771      1770      1772      1772      1773
      1772      1774      1774      1775      1774      1776      1774      1777
      1777      1778      1777      1779      1777      1780      1780      1781
      1780      1782      1780      1783      1783      1784      1783      1785
      1783      1786      1786      1787      1786      1788      1786      1789
      1789      1790      1789      1791      1789      1792      1792      1793
      1792      1794      1792      1795      1795      1796      1795      1797
      1795      1798      1746      1747      1747      1749      1747      1748
      1749      1750      1749      1751      1749      1799      1799      1800
      1799      1801      1799      1802      1802      1803      1802      1804
      1802      1805      1805      1806      1805      1807      1805      1808
      1808      1809      1808      1810      1808      1811      1811      1812
      1811      1813      1811      1814      1814      1815      1814      1816
      1814      1817      1817      1818      1817      1819      1817      1820
      1820      1821      1820      1822      1820      1823      1823      1824
      1823      1825      1823      1826      1826      1827      1826      1828
      1826      1829      1829      1830      1829      1831      1829      1832
      1832      1833      1832      1834      1832      1835      1835      1836
      1835      1837      1835      1838      1838      1839      1838      1840
      1838      1841      1841      1842      1841      1843      1841      1844
      1844      1845      1844      1846      1844      1847      1848      1849
      1848      1850      1848      1851      1848      1852      1852      1853
      1852      1854      1852      1855      1855      1856      1855      1857
      1855      1861      1863      1862      1861      1858      1858      1862
      1858      1859      1858      1860      1863      1864      1863      1865
      1863      1866      1866      1867      1866      1874      1866      1868
      1874      1875      1874      1876      1874      1877      1868      1869
      1869      1871      1869      1870      1871      1872      1871      1873
      1871      1883      1883      1884      1883      1885      1883      1886
      1886      1887      1886      1888      1886      1889      1889      1890
      1889      1891      1891      1892      1891      1893      1893      1894
      1893      1895      1893      1896      1896      1897      1896      1898
      1898      1899      1898      1900      1900      1901      1900      1902
      1900      1903      1903      1904      1903      1905      1905      1906
      1905      1907      1907      1908      1907      1909      1907      1910
      1910      1911      1910      1912      1912      1913      1912      1914
      1914      1915      1914      1916      1914      1917      1917      1918
      1917      1919      1917      1920      1920      1921      1920      1922
      1920      1923      1923      1924      1923      1925      1923      1926
      1926      1927      1926      1928      1926      1929      1877      1878
      1878      1880      1878      1879      1880      1881      1880      1882
      1880      1930      1930      1931      1930      1932      1930      1933
      1933      1934      1933      1935      1933      1936      1936      1937
      1936      1938      1936      1939      1939      1940      1939      1941
      1939      1942      1942      1943      1942      1944      1942      1945
      1945      1946      1945      1947      1945      1948      1948      1949
      1948      1950      1948      1951      1951      1952      1951      1953
      1951      1954      1954      1955      1954      1956      1954      1957
      1957      1958      1957      1959      1957      1960      1960      1961
      1960      1962      1960      1963      1963      1964      1963      1965
      1963      1966      1966      1967      1966      1968      1966      1969
      1969      1970      1969      1971      1969      1972      1972      1973
      1972      1974      1972      1975      1975      1976      1975      1977
      1975      1978      1979      1981      1979      1980      1981      1982
      1979      2025      2025      2026      2025      2027      2025      2022
      2022      2023      2022      2024      1979      1983      1983      1984
      1983      1985      1983      1986      1986      2017      2017      2022
      2017      2018      2018      2019      2018      2020      2018      2021
      1986      1987      1987      1988      1987      1989      1989      1990
      1989      1991      1989      1992      1992      1993      1992      2015
      2015      2016      2015      2017      1992      1994      1994      1995
      1994      2004      2004      2009      2009      2010      2009      2011
      2009      2012      2012      2013      2012      2014      2012      2015
      2004      2005      2005      2006      2005      2007      2005      2008
      1994      1996      1996      1997      1996      1998      1996      1999
      1999      2000      1999      2001      1999      2002      2002      2003
      2002      2004      2002      2028      2028      2029      2028      2030
      2030      2031      2030      2032      2030      2033      2028      2034
      2034      2035      2034      2036      2034      2037      2037      2038
      2037      2039      2037      2040      2040      2041      2040      2042
      2040      2043      2043      2044      2043      2045      2045      2046
      2045      2047      2045      2048      2043      2049      2049      2050
      2049      2051      2049      2052      2128      2129      2128      2130
      2128      2131      2128      2125      2125      2126      2125      2127
      2125      2122      2122      2123      2122      2124      2122      2119
      2119      2120      2119      2121      2119      2116      2116      2117
      2116      2118      2116      2113      2113      2114      2113      2115
      2113      2110      2110      2111      2110      2112      2110      2107
      2107      2108      2107      2109      2107      2104      2104      2105
      2104      2106      2104      2101      2101      2102      2101      2103
      2101      2098      2098      2099      2098      2100      2098      2095
      2095      2096      2095      2097      2095      2092      2092      2093
      2092      2094      2092      2090      2090      2091      2088      2089
      2088      2084      2084      2085      2084      2086      2086      2087
      2084      2082      2082      2083      2082      2077      2077      2078
      2077      2079      2077      2075      2075      2072      2076      2072
      2073      2072      2074      2072      2076      2069      2069      2070
      2069      2071      2069      2066      2066      2067      2066      2068
      2066      2053      2053      2062      2053      2058      2053      2054
      2062      2063      2062      2064      2062      2065      2058      2059
      2058      2060      2058      2061      2054      2055      2054      2056
      2054      2057      2082      2080      2080      2081      2080      2132
      2132      2134      2134      2135      2134      2136      2134      2137
      2137      2138      2137      2139      2137      2140      2140      2141
      2140      2142      2140      2143      2143      2144      2143      2145
      2143      2146      2146      2147      2146      2148      2146      2149
      2149      2150      2149      2151      2149      2152      2152      2153
      2152      2154      2152      2155      2155      2156      2157      2158
      2157      2159      2159      2160      2159      2161      2159      2162
      2162      2163      2162      2164      2162      2165      2165      2166
      2165      2167      2165      2168      2168      2169      2168      2170
      2168      2171      2171      2172      2171      2173      2171      2174
      2174      2175      2174      2176      2174      2177      2177      2178
      2177      2179      2177      2180      2180      2181      2180      2182
      2180      2183      2088      2090      2155      2157      2132      2133
      2184      2186      2184      2185      2186      2187      2184      2230
      2230      2231      2230      2232      2230      2227      2227      2228
      2227      2229      2184      2188      2188      2189      2188      2190
      2188      2191      2191      2222      2222      2227      2222      2223
      2223      2224      2223      2225      2223      2226      2191      2192
      2192      2193      2192      2194      2194      2195      2194      2196
      2194      2197      2197      2198      2197      2220      2220      2221
      2220      2222      2197      2199      2199      2200      2199      2209
      2209      2214      2214      2215      2214      2216      2214      2217
      2217      2218      2217      2219      2217      2220      2209      2210
      2210      2211      2210      2212      2210      2213      2199      2201
      2201      2202      2201      2203      2201      2204      2204      2205
      2204      2206      2204      2207      2207      2208      2207      2209
      2207      2233      2233      2234      2233      2235      2235      2236
      2235      2237      2235      2238      2233      2239      2239      2240
      2239      2241      2239      2242      2242      2243      2242      2244
      2242      2245      2245      2246      2245      2247      2245      2248
      2248      2249      2248      2250      2250      2251      2250      2252
      2250      2253      2248      2254      2254      2255      2254      2256
      2254      2257      2258      2260      2258      2259      2260      2261
      2258      2304      2304      2305      2304      2306      2304      2301
      2301      2302      2301      2303      2258      2262      2262      2263
      2262      2264      2262      2265      2265      2296      2296      2301
      2296      2297      2297      2298      2297      2299      2297      2300
      2265      2266      2266      2267      2266      2268      2268      2269
      2268      2270      2268      2271      2271      2272      2271      2294
      2294      2295      2294      2296      2271      2273      2273      2274
      2273      2283      2283      2288      2288      2289      2288      2290
      2288      2291      2291      2292      2291      2293      2291      2294
      2283      2284      2284      2285      2284      2286      2284      2287
      2273      2275      2275      2276      2275      2277      2275      2278
      2278      2279      2278      2280      2278      2281      2281      2282
      2281      2283      2281      2307      2307      2308      2307      2309
      2309      2310      2309      2311      2309      2312      2307      2313
      2313      2314      2313      2315      2313      2316      2316      2317
      2316      2318      2316      2319      2319      2320      2319      2321
      2319      2322      2322      2323      2322      2324      2324      2325
      2324      2326      2324      2327      2322      2328      2328      2329
      2328      2330      2328      2331      2332      2334      2332      2333
      2334      2335      2332      2378      2378      2379      2378      2380
      2378      2375      2375      2376      2375      2377      2332      2336
      2336      2337      2336      2338      2336      2339      2339      2370
      2370      2375      2370      2371      2371      2372      2371      2373
      2371      2374      2339      2340      2340      2341      2340      2342
      2342      2343      2342      2344      2342      2345      2345      2346
      2345      2368      2368      2369      2368      2370      2345      2347
      2347      2348      2347      2357      2357      2362      2362      2363
      2362      2364      2362      2365      2365      2366      2365      2367
      2365      2368      2357      2358      2358      2359      2358      2360
      2358      2361      2347      2349      2349      2350      2349      2351
      2349      2352      2352      2353      2352      2354      2352      2355
      2355      2356      2355      2357      2355      2381      2381      2382
      2381      2383      2383      2384      2383      2385      2383      2386
      2381      2387      2387      2388      2387      2389      2387      2390
      2390      2391      2390      2392      2390      2393      2393      2394
      2393      2395      2393      2396      2396      2397      2396      2398
      2398      2399      2398      2400      2398      2401      2396      2402
      2402      2403      2402      2404      2402      2405      2406      2407
      2406      2408      2406      2409      2406      2410      2414      2412
      2412      2410      2412      2413      2410      2411      2410      2415
      2423      2422      2415      2416      2415      2417      2415      2421
      2421      2418      2418      2422      2418      2419      2418      2420
      2423      2424      2423      2425      2423      2426      2426      2427
      2426      2434      2426      2428      2434      2435      2434      2436
      2434      2437      2428      2429      2429      2431      2429      2430
      2431      2432      2431      2433      2431      2443      2443      2444
      2443      2445      2443      2446      2446      2447      2446      2448
      2446      2449      2449      2450      2449      2451      2451      2452
      2451      2453      2453      2454      2453      2455      2453      2456
      2456      2457      2456      2458      2458      2459      2458      2460
      2460      2461      2460      2462      2460      2463      2463      2464
      2463      2465      2465      2466      2465      2467      2467      2468
      2467      2469      2467      2470      2470      2471      2470      2472
      2472      2473      2472      2474      2474      2475      2474      2476
      2474      2477      2477      2478      2477      2479      2477      2480
      2480      2481      2480      2482      2480      2483      2483      2484
      2483      2485      2483      2486      2486      2487      2486      2488
      2486      2489      2437      2438      2438      2440      2438      2439
      2440      2441      2440      2442      2440      2490      2490      2491
      2490      2492      2490      2493      2493      2494      2493      2495
      2493      2496      2496      2497      2496      2498      2496      2499
      2499      2500      2499      2501      2499      2502      2502      2503
      2502      2504      2502      2505      2505      2506      2505      2507
      2505      2508      2508      2509      2508      2510      2508      2511
      2511      2512      2511      2513      2511      2514      2514      2515
      2514      2516      2514      2517      2517      2518      2517      2519
      2517      2520      2520      2521      2520      2522      2520      2523
      2523      2524      2523      2525      2523      2526      2526      2527
      2526      2528      2526      2529      2529      2530      2529      2531
      2529      2532      2532      2533      2532      2534      2532      2535
      2535      2536      2535      2537      2535      2538      2539      2541
      2539      2540      2541      2542      2539      2585      2585      2586
      2585      2587      2585      2582      2582      2583      2582      2584
      2539      2543      2543      2544      2543      2545      2543      2546
      2546      2577      2577      2582      2577      2578      2578      2579
      2578      2580      2578      2581      2546      2547      2547      2548
      2547      2549      2549      2550      2549      2551      2549      2552
      2552      2553      2552      2575      2575      2576      2575      2577
      2552      2554      2554      2555      2554      2564      2564      2569
      2569      2570      2569      2571      2569      2572      2572      2573
      2572      2574      2572      2575      2564      2565      2565      2566
      2565      2567      2565      2568      2554      2556      2556      2557
      2556      2558      2556      2559      2559      2560      2559      2561
      2559      2562      2562      2563      2562      2564      2562      2588
      2588      2589      2588      2590      2590      2591      2590      2592
      2590      2593      2588      2594      2594      2595      2594      2596
      2594      2597      2597      2598      2597      2599      2597      2600
      2600      2601      2600      2602      2600      2603      2603      2604
      2603      2605      2605      2606      2605      2607      2605      2608
      2603      2609      2609      2610      2609      2611      2609      2612
      2613      2617      2613      2621      2613      2625      2617      2618
      2617      2619      2617      2620      2621      2622      2621      2623
      2621      2624      2625      2626      2625      2627      2625      2628
      2613      2614      2614      2615      2614      2616      2614      2629
      2629      2630      2629      2631      2629      2635      2636      2637
      2635      2632      2632      2636      2632      2633      2632      2634
      2637      2638      2637      2639      2637      2640      2640      2641
      2640      2648      2640      2642      2648      2649      2648      2650
      2648      2651      2642      2643      2643      2645      2643      2644
      2645      2646      2645      2647      2645      2657      2657      2658
      2657      2659      2657      2660      2660      2661      2660      2662
      2660      2663      2663      2664      2663      2665      2665      2666
      2665      2667      2667      2668      2667      2669      2667      2670
      2670      2671      2670      2672      2672      2673      2672      2674
      2674      2675      2674      2676      2674      2677      2677      2678
      2677      2679      2679      2680      2679      2681      2681      2682
      2681      2683      2681      2684      2684      2685      2684      2686
      2686      2687      2686      2688      2688      2689      2688      2690
      2688      2691      2691      2692      2691      2693      2691      2694
      2694      2695      2694      2696      2694      2697      2697      2698
      2697      2699      2697      2700      2700      2701      2700      2702
      2700      2703      2651      2652      2652      2654      2652      2653
      2654      2655      2654      2656      2654      2704      2704      2705
      2704      2706      2704      2707      2707      2708      2707      2709
      2707      2710      2710      2711      2710      2712      2710      2713
      2713      2714      2713      2715      2713      2716      2716      2717
      2716      2718      2716      2719      2719      2720      2719      2721
      2719      2722      2722      2723      2722      2724      2722      2725
      2725      2726      2725      2727      2725      2728      2728      2729
      2728      2730      2728      2731      2731      2732      2731      2733
      2731      2734      2734      2735      2734      2736      2734      2737
      2737      2738      2737      2739      2737      2740      2740      2741
      2740      2742      2740      2743      2743      2744      2743      2745
      2743      2746      2746      2747      2746      2748      2746      2749
      2749      2750      2749      2751      2749      2752      2753      2755
      2753      2754      2755      2756      2753      2799      2799      2800
      2799      2801      2799      2796      2796      2797      2796      2798
      2753      2757      2757      2758      2757      2759      2757      2760
      2760      2791      2791      2796      2791      2792      2792      2793
      2792      2794      2792      2795      2760      2761      2761      2762
      2761      2763      2763      2764      2763      2765      2763      2766
      2766      2767      2766      2789      2789      2790      2789      2791
      2766      2768      2768      2769      2768      2778      2778      2783
      2783      2784      2783      2785      2783      2786      2786      2787
      2786      2788      2786      2789      2778      2779      2779      2780
      2779      2781      2779      2782      2768      2770      2770      2771
      2770      2772      2770      2773      2773      2774      2773      2775
      2773      2776      2776      2777      2776      2778      2776      2802
      2802      2803      2802      2804      2804      2805      2804      2806
      2804      2807      2802      2808      2808      2809      2808      2810
      2808      2811      2811      2812      2811      2813      2811      2814
      2814      2815      2814      2816      2814      2817      2817      2818
      2817      2819      2819      2820      2819      2821      2819      2822
      2817      2823      2823      2824      2823      2825      2823      2826
      2847      2848      2847      2843      2847      2827      2847      2852
      2827      2828      2827      2829      2829      2830      2827      2831
      2831      2832      2831      2833      2833      2834      2831      2835
      2835      2836      2835      2837      2837      2838      2835      2839
      2839      2840      2839      2843      2843      2844      2843      2845
      2845      2846      2839      2841      2841      2842      2852      2849
      2849      2853      2849      2850      2849      2851      2853      2854
      2854      2855      2854      2856      2854      2857      2857      2858
      2857      2865      2857      2859      2865      2866      2865      2867
      2865      2868      2859      2860      2860      2862      2860      2861
      2862      2863      2862      2864      2862      2874      2874      2875
      2874      2876      2874      2877      2877      2878      2877      2879
      2877      2880      2880      2881      2880      2882      2882      2883
      2882      2884      2884      2885      2884      2886      2884      2887
      2887      2888      2887      2889      2889      2890      2889      2891
      2891      2892      2891      2893      2891      2894      2894      2895
      2894      2896      2896      2897      2896      2898      2898      2899
      2898      2900      2898      2901      2901      2902      2901      2903
      2903      2904      2903      2905      2905      2906      2905      2907
      2905      2908      2908      2909      2908      2910      2908      2911
      2911      2912      2911      2913      2911      2914      2914      2915
      2914      2916      2914      2917      2917      2918      2917      2919
      2917      2920      2868      2869      2869      2871      2869      2870
      2871      2872      2871      2873      2871      2921      2921      2922
      2921      2923      2921      2924      2924      2925      2924      2926
      2924      2927      2927      2928      2927      2929      2927      2930
      2930      2931      2930      2932      2930      2933      2933      2934
      2933      2935      2933      2936      2936      2937      2936      2938
      2936      2939      2939      2940      2939      2941      2939      2942
      2942      2943      2942      2944      2942      2945      2945      2946
      2945      2947      2945      2948      2948      2949      2948      2950
      2948      2951      2951      2952      2951      2953      2951      2954
      2954      2955      2954      2956      2954      2957      2957      2958
      2957      2959      2957      2960      2960      2961      2960      2962
      2960      2963      2963      2964      2963      2965      2963      2966
      2966      2967      2966      2968      2966      2969      2970      2972
      2970      2971      2972      2973      2970      3016      3016      3017
      3016      3018      3016      3013      3013      3014      3013      3015
      2970      2974      2974      2975      2974      2976      2974      2977
      2977      3008      3008      3013      3008      3009      3009      3010
      3009      3011      3009      3012      2977      2978      2978      2979
      2978      2980      2980      2981      2980      2982      2980      2983
      2983      2984      2983      3006      3006      3007      3006      3008
      2983      2985      2985      2986      2985      2995      2995      3000
      3000      3001      3000      3002      3000      3003      3003      3004
      3003      3005      3003      3006      2995      2996      2996      2997
      2996      2998      2996      2999      2985      2987      2987      2988
      2987      2989      2987      2990      2990      2991      2990      2992
      2990      2993      2993      2994      2993      2995      2993      3019
      3019      3020      3019      3021      3021      3022      3021      3023
      3021      3024      3019      3025      3025      3026      3025      3027
      3025      3028      3028      3029      3028      3030      3028      3031
      3031      3032      3031      3033      3031      3034      3034      3035
      3034      3036      3036      3037      3036      3038      3036      3039
      3034      3040      3040      3041      3040      3042      3040      3043
      3044      3045      3044      3046      3044      3047      3044      3048
      3048      3049      3048      3050      3048      3051      3051      3052
      3051      3053      3051      3057      3059      3058      3057      3054
      3054      3058      3054      3055      3054      3056      3059      3060
      3059      3061      3059      3062      3062      3063      3062      3070
      3062      3064      3070      3071      3070      3072      3070      3073
      3064      3065      3065      3067      3065      3066      3067      3068
      3067      3069      3067      3079      3079      3080      3079      3081
      3079      3082      3082      3083      3082      3084      3082      3085
      3085      3086      3085      3087      3087      3088      3087      3089
      3089      3090      3089      3091      3089      3092      3092      3093
      3092      3094      3094      3095      3094      3096      3096      3097
      3096      3098      3096      3099      3099      3100      3099      3101
      3101      3102      3101      3103      3103      3104      3103      3105
      3103      3106      3106      3107      3106      3108      3108      3109
      3108      3110      3110      3111      3110      3112      3110      3113
      3113      3114      3113      3115      3113      3116      3116      3117
      3116      3118      3116      3119      3119      3120      3119      3121
      3119      3122      3122      3123      3122      3124      3122      3125
      3073      3074      3074      3076      3074      3075      3076      3077
      3076      3078      3076      3126      3126      3127      3126      3128
      3126      3129      3129      3130      3129      3131      3129      3132
      3132      3133      3132      3134      3132      3135      3135      3136
      3135      3137      3135      3138      3138      3139      3138      3140
      3138      3141      3141      3142      3141      3143      3141      3144
      3144      3145      3144      3146      3144      3147      3147      3148
      3147      3149      3147      3150      3150      3151      3150      3152
      3150      3153      3153      3154      3153      3155      3153      3156
      3156      3157      3156      3158      3156      3159      3159      3160
      3159      3161      3159      3162      3162      3163      3162      3164
      3162      3165      3165      3166      3165      3167      3165      3168
      3168      3169      3168      3170      3168      3171      3171      3172
      3171      3173      3171      3174      3250      3251      3250      3252
      3250      3253      3250      3247      3247      3248      3247      3249
      3247      3244      3244      3245      3244      3246      3244      3241
      3241      3242      3241      3243      3241      3238      3238      3239
      3238      3240      3238      3235      3235      3236      3235      3237
      3235      3232      3232      3233      3232      3234      3232      3229
      3229      3230      3229      3231      3229      3226      3226      3227
      3226      3228      3226      3223      3223      3224      3223      3225
      3223      3220      3220      3221      3220      3222      3220      3217
      3217      3218      3217      3219      3217      3214      3214      3215
      3214      3216      3214      3212      3212      3213      3210      3211
      3210      3206      3206      3207      3206      3208      3208      3209
      3206      3204      3204      3205      3204      3199      3199      3200
      3199      3201      3199      3197      3197      3194      3198      3194
      3195      3194      3196      3194      3198      3191      3191      3192
      3191      3193      3191      3188      3188      3189      3188      3190
      3188      3175      3175      3184      3175      3180      3175      3176
      3184      3185      3184      3186      3184      3187      3180      3181
      3180      3182      3180      3183      3176      3177      3176      3178
      3176      3179      3204      3202      3202      3203      3202      3254
      3254      3256      3256      3257      3256      3258      3256      3259
      3259      3260      3259      3261      3259      3262      3262      3263
      3262      3264      3262      3265      3265      3266      3265      3267
      3265      3268      3268      3269      3268      3270      3268      3271
      3271      3272      3271      3273      3271      3274      3274      3275
      3274      3276      3274      3277      3277      3278      3279      3280
      3279      3281      3281      3282      3281      3283      3281      3284
      3284      3285      3284      3286      3284      3287      3287      3288
      3287      3289      3287      3290      3290      3291      3290      3292
      3290      3293      3293      3294      3293      3295      3293      3296
      3296      3297      3296      3298      3296      3299      3299      3300
      3299      3301      3299      3302      3302      3303      3302      3304
      3302      3305      3210      3212      3277      3279      3254      3255
      3306      3308      3306      3307      3308      3309      3306      3352
      3352      3353      3352      3354      3352      3349      3349      3350
      3349      3351      3306      3310      3310      3311      3310      3312
      3310      3313      3313      3344      3344      3349      3344      3345
      3345      3346      3345      3347      3345      3348      3313      3314
      3314      3315      3314      3316      3316      3317      3316      3318
      3316      3319      3319      3320      3319      3342      3342      3343
      3342      3344      3319      3321      3321      3322      3321      3331
      3331      3336      3336      3337      3336      3338      3336      3339
      3339      3340      3339      3341      3339      3342      3331      3332
      3332      3333      3332      3334      3332      3335      3321      3323
      3323      3324      3323      3325      3323      3326      3326      3327
      3326      3328      3326      3329      3329      3330      3329      3331
      3329      3355      3355      3356      3355      3357      3357      3358
      3357      3359      3357      3360      3355      3361      3361      3362
      3361      3363      3361      3364      3364      3365      3364      3366
      3364      3367      3367      3368      3367      3369      3367      3370
      3370      3371      3370      3372      3372      3373      3372      3374
      3372      3375      3370      3376      3376      3377      3376      3378
      3376      3379      3455      3456      3455      3457      3455      3458
      3455      3452      3452      3453      3452      3454      3452      3449
      3449      3450      3449      3451      3449      3446      3446      3447
      3446      3448      3446      3443      3443      3444      3443      3445
      3443      3440      3440      3441      3440      3442      3440      3437
      3437      3438      3437      3439      3437      3434      3434      3435
      3434      3436      3434      3431      3431      3432      3431      3433
      3431      3428      3428      3429      3428      3430      3428      3425
      3425      3426      3425      3427      3425      3422      3422      3423
      3422      3424      3422      3419      3419      3420      3419      3421
      3419      3417      3417      3418      3415      3416      3415      3411
      3411      3412      3411      3413      3413      3414      3411      3409
      3409      3410      3409      3404      3404      3405      3404      3406
      3404      3402      3402      3399      3403      3399      3400      3399
      3401      3399      3403      3396      3396      3397      3396      3398
      3396      3393      3393      3394      3393      3395      3393      3380
      3380      3389      3380      3385      3380      3381      3389      3390
      3389      3391      3389      3392      3385      3386      3385      3387
      3385      3388      3381      3382      3381      3383      3381      3384
      3409      3407      3407      3408      3407      3459      3459      3461
      3461      3462      3461      3463      3461      3464      3464      3465
      3464      3466      3464      3467      3467      3468      3467      3469
      3467      3470      3470      3471      3470      3472      3470      3473
      3473      3474      3473      3475      3473      3476      3476      3477
      3476      3478      3476      3479      3479      3480      3479      3481
      3479      3482      3482      3483      3484      3485      3484      3486
      3486      3487      3486      3488      3486      3489      3489      3490
      3489      3491      3489      3492      3492      3493      3492      3494
      3492      3495      3495      3496      3495      3497      3495      3498
      3498      3499      3498      3500      3498      3501      3501      3502
      3501      3503      3501      3504      3504      3505      3504      3506
      3504      3507      3507      3508      3507      3509      3507      3510
      3415      3417      3482      3484      3459      3460      3511      3512
      3511      3516      3511      3520      3512      3513      3512      3514
      3512      3515      3516      3517      3516      3518      3516      3519
      3520      3521      3520      3522      3520      3523      3511      3524
      3524      3525      3524      3526      3524      3527      3527      3528
      3527      3529      3527      3533      3534      3535      3533      3530
      3530      3534      3530      3531      3530      3532      3535      3536
      3535      3537      3535      3538      3538      3539      3538      3546
      3538      3540      3546      3547      3546      3548      3546      3549
      3540      3541      3541      3543      3541      3542      3543      3544
      3543      3545      3543      3555      3555      3556      3555      3557
      3555      3558      3558      3559      3558      3560      3558      3561
      3561      3562      3561      3563      3561      3564      3564      3565
      3564      3566      3564      3567      3567      3568      3567      3569
      3567      3570      3570      3571      3570      3572      3570      3573
      3573      3574      3573      3575      3575      3576      3575      3577
      3577      3578      3577      3579      3577      3580      3580      3581
      3580      3582      3582      3583      3582      3584      3584      3585
      3584      3586      3584      3587      3587      3588      3587      3589
      3587      3590      3590      3591      3590      3592      3590      3593
      3593      3594      3593      3595      3593      3596      3596      3597
      3596      3598      3596      3599      3549      3550      3550      3552
      3550      3551      3552      3553      3552      3554      3552      3600
      3600      3601      3600      3602      3600      3603      3603      3604
      3603      3605      3603      3606      3606      3607      3606      3608
      3606      3609      3609      3610      3609      3611      3609      3612
      3612      3613      3612      3614      3612      3615      3615      3616
      3615      3617      3615      3618      3618      3619      3618      3620
      3618      3621      3621      3622      3621      3623      3621      3624
      3624      3625      3624      3626      3624      3627      3627      3628
      3627      3629      3627      3630      3630      3631      3630      3632
      3630      3633      3633      3634      3633      3635      3633      3636
      3636      3637      3636      3638      3636      3639      3639      3640
      3639      3641      3639      3642      3642      3643      3642      3644
      3642      3645      3645      3646      3645      3647      3645      3648
      3649      3651      3649      3650      3651      3652      3649      3695
      3695      3696      3695      3697      3695      3692      3692      3693
      3692      3694      3649      3653      3653      3654      3653      3655
      3653      3656      3656      3687      3687      3692      3687      3688
      3688      3689      3688      3690      3688      3691      3656      3657
      3657      3658      3657      3659      3659      3660      3659      3661
      3659      3662      3662      3663      3662      3685      3685      3686
      3685      3687      3662      3664      3664      3665      3664      3674
      3674      3679      3679      3680      3679      3681      3679      3682
      3682      3683      3682      3684      3682      3685      3674      3675
      3675      3676      3675      3677      3675      3678      3664      3666
      3666      3667      3666      3668      3666      3669      3669      3670
      3669      3671      3669      3672      3672      3673      3672      3674
      3672      3698      3698      3699      3698      3700      3700      3701
      3700      3702      3700      3703      3698      3704      3704      3705
      3704      3706      3704      3707      3707      3708      3707      3709
      3707      3710      3710      3711      3710      3712      3710      3713
      3713      3714      3713      3715      3715      3716      3715      3717
      3715      3718      3713      3719      3719      3720      3719      3721
      3719      3722      3723      3725      3723      3724      3725      3726
      3723      3769      3769      3770      3769      3771      3769      3766
      3766      3767      3766      3768      3723      3727      3727      3728
      3727      3729      3727      3730      3730      3761      3761      3766
      3761      3762      3762      3763      3762      3764      3762      3765
      3730      3731      3731      3732      3731      3733      3733      3734
      3733      3735      3733      3736      3736      3737      3736      3759
      3759      3760      3759      3761      3736      3738      3738      3739
      3738      3748      3748      3753      3753      3754      3753      3755
      3753      3756      3756      3757      3756      3758      3756      3759
      3748      3749      3749      3750      3749      3751      3749      3752
      3738      3740      3740      3741      3740      3742      3740      3743
      3743      3744      3743      3745      3743      3746      3746      3747
      3746      3748      3746      3772      3772      3773      3772      3774
      3774      3775      3774      3776      3774      3777      3772      3778
      3778      3779      3778      3780      3778      3781      3781      3782
      3781      3783      3781      3784      3784      3785      3784      3786
      3784      3787      3787      3788      3787      3789      3789      3790
      3789      3791      3789      3792      3787      3793      3793      3794
      3793      3795      3793      3796      3797      3798      3797      3799
      3797      3800      3797      3801      3805      3803      3803      3801
      3803      3804      3801      3802      3801      3806      3814      3813
      3806      3807      3806      3808      3806      3812      3812      3809
      3809      3813      3809      3810      3809      3811      3814      3815
      3814      3816      3814      3817      3817      3818      3817      3825
      3817      3819      3825      3826      3825      3827      3825      3828
      3819      3820      3820      3822      3820      3821      3822      3823
      3822      3824      3822      3834      3834      3835      3834      3836
      3834      3837      3837      3838      3837      3839      3837      3840
      3840      3841      3840      3842      3842      3843      3842      3844
      3844      3845      3844      3846      3844      3847      3847      3848
      3847      3849      3849      3850      3849      3851      3851      3852
      3851      3853      3851      3854      3854      3855      3854      3856
      3856      3857      3856      3858      3858      3859      3858      3860
      3858      3861      3861      3862      3861      3863      3863      3864
      3863      3865      3865      3866      3865      3867      3865      3868
      3868      3869      3868      3870      3868      3871      3871      3872
      3871      3873      3871      3874      3874      3875      3874      3876
      3874      3877      3877      3878      3877      3879      3877      3880
      3828      3829      3829      3831      3829      3830      3831      3832
      3831      3833      3831      3881      3881      3882      3881      3883
      3881      3884      3884      3885      3884      3886      3884      3887
      3887      3888      3887      3889      3887      3890      3890      3891
      3890      3892      3890      3893      3893      3894      3893      3895
      3893      3896      3896      3897      3896      3898      3896      3899
      3899      3900      3899      3901      3899      3902      3902      3903
      3902      3904      3902      3905      3905      3906      3905      3907
      3905      3908      3908      3909      3908      3910      3908      3911
      3911      3912      3911      3913      3911      3914      3914      3915
      3914      3916      3914      3917      3917      3918      3917      3919
      3917      3920      3920      3921      3920      3922      3920      3923
      3923      3924      3923      3925      3923      3926      3926      3927
      3926      3928      3926      3929      3930      3931      3930      3932
      3930      3933      3930      3934      3934      3935      3934      3936
      3934      3937      3937      3938      3937      3939      3937      3943
      3945      3944      3943      3940      3940      3944      3940      3941
      3940      3942      3945      3946      3945      3947      3945      3948
      3948      3949      3948      3956      3948      3950      3956      3957
      3956      3958      3956      3959      3950      3951      3951      3953
      3951      3952      3953      3954      3953      3955      3953      3965
      3965      3966      3965      3967      3965      3968      3968      3969
      3968      3970      3968      3971      3971      3972      3971      3973
      3973      3974      3973      3975      3975      3976      3975      3977
      3975      3978      3978      3979      3978      3980      3980      3981
      3980      3982      3982      3983      3982      3984      3982      3985
      3985      3986      3985      3987      3987      3988      3987      3989
      3989      3990      3989      3991      3989      3992      3992      3993
      3992      3994      3994      3995      3994      3996      3996      3997
      3996      3998      3996      3999      3999      4000      3999      4001
      3999      4002      4002      4003      4002      4004      4002      4005
      4005      4006      4005      4007      4005      4008      4008      4009
      4008      4010      4008      4011      3959      3960      3960      3962
      3960      3961      3962      3963      3962      3964      3962      4012
      4012      4013      4012      4014      4012      4015      4015      4016
      4015      4017      4015      4018      4018      4019      4018      4020
      4018      4021      4021      4022      4021      4023      4021      4024
      4024      4025      4024      4026      4024      4027      4027      4028
      4027      4029      4027      4030      4030      4031      4030      4032
      4030      4033      4033      4034      4033      4035      4033      4036
      4036      4037      4036      4038      4036      4039      4039      4040
      4039      4041      4039      4042      4042      4043      4042      4044
      4042      4045      4045      4046      4045      4047      4045      4048
      4048      4049      4048      4050      4048      4051      4051      4052
      4051      4053      4051      4054      4054      4055      4054      4056
      4054      4057      4057      4058      4057      4059      4057      4060
      4061      4063      4061      4062      4063      4064      4061      4107
      4107      4108      4107      4109      4107      4104      4104      4105
      4104      4106      4061      4065      4065      4066      4065      4067
      4065      4068      4068      4099      4099      4104      4099      4100
      4100      4101      4100      4102      4100      4103      4068      4069
      4069      4070      4069      4071      4071      4072      4071      4073
      4071      4074      4074      4075      4074      4097      4097      4098
      4097      4099      4074      4076      4076      4077      4076      4086
      4086      4091      4091      4092      4091      4093      4091      4094
      4094      4095      4094      4096      4094      4097      4086      4087
      4087      4088      4087      4089      4087      4090      4076      4078
      4078      4079      4078      4080      4078      4081      4081      4082
      4081      4083      4081      4084      4084      4085      4084      4086
      4084      4110      4110      4111      4110      4112      4112      4113
      4112      4114      4112      4115      4110      4116      4116      4117
      4116      4118      4116      4119      4119      4120      4119      4121
      4119      4122      4122      4123      4122      4124      4122      4125
      4125      4126      4125      4127      4127      4128      4127      4129
      4127      4130      4125      4131      4131      4132      4131      4133
      4131      4134      4135      4136      4135      4137      4135      4138
      4135      4139      4143      4141      4141      4139      4141      4142
      4139      4140      4139      4144      4152      4151      4144      4145
      4144      4146      4144      4150      4150      4147      4147      4151
      4147      4148      4147      4149      4152      4153      4152      4154
      4152      4155      4155      4156      4155      4163      4155      4157
      4163      4164      4163      4165      4163      4166      4157      4158
      4158      4160      4158      4159      4160      4161      4160      4162
      4160      4172      4172      4173      4172      4174      4172      4175
      4175      4176      4175      4177      4175      4178      4178      4179
      4178      4180      4180      4181      4180      4182      4182      4183
      4182      4184      4182      4185      4185      4186      4185      4187
      4187      4188      4187      4189      4189      4190      4189      4191
      4189      4192      4192      4193      4192      4194      4194      4195
      4194      4196      4196      4197      4196      4198      4196      4199
      4199      4200      4199      4201      4201      4202      4201      4203
      4203      4204      4203      4205      4203      4206      4206      4207
      4206      4208      4206      4209      4209      4210      4209      4211
      4209      4212      4212      4213      4212      4214      4212      4215
      4215      4216      4215      4217      4215      4218      4166      4167
      4167      4169      4167      4168      4169      4170      4169      4171
      4169      4219      4219      4220      4219      4221      4219      4222
      4222      4223      4222      4224      4222      4225      4225      4226
      4225      4227      4225      4228      4228      4229      4228      4230
      4228      4231      4231      4232      4231      4233      4231      4234
      4234      4235      4234      4236      4234      4237      4237      4238
      4237      4239      4237      4240      4240      4241      4240      4242
      4240      4243      4243      4244      4243      4245      4243      4246
      4246      4247      4246      4248      4246      4249      4249      4250
      4249      4251      4249      4252      4252      4253      4252      4254
      4252      4255      4255      4256      4255      4257      4255      4258
      4258      4259      4258      4260      4258      4261      4261      4262
      4261      4263      4261      4264      4264      4265      4264      4266
      4264      4267      4268      4269      4268      4273      4268      4277
      4269      4270      4269      4271      4269      4272      4273      4274
      4273      4275      4273      4276      4277      4278      4277      4279
      4277      4280      4268      4281      4281      4282      4281      4283
      4281      4284      4284      4285      4284      4286      4284      4290
      4291      4292      4290      4287      4287      4291      4287      4288
      4287      4289      4292      4293      4292      4294      4292      4295
      4295      4296      4295      4303      4295      4297      4303      4304
      4303      4305      4303      4306      4297      4298      4298      4300
      4298      4299      4300      4301      4300      4302      4300      4312
      4312      4313      4312      4314      4312      4315      4315      4316
      4315      4317      4315      4318      4318      4319      4318      4320
      4318      4321      4321      4322      4321      4323      4321      4324
      4324      4325      4324      4326      4324      4327      4327      4328
      4327      4329      4327      4330      4330      4331      4330      4332
      4332      4333      4332      4334      4334      4335      4334      4336
      4334      4337      4337      4338      4337      4339      4339      4340
      4339      4341      4341      4342      4341      4343      4341      4344
      4344      4345      4344      4346      4344      4347      4347      4348
      4347      4349      4347      4350      4350      4351      4350      4352
      4350      4353      4353      4354      4353      4355      4353      4356
      4306      4307      4307      4309      4307      4308      4309      4310
      4309      4311      4309      4357      4357      4358      4357      4359
      4357      4360      4360      4361      4360      4362      4360      4363
      4363      4364      4363      4365      4363      4366      4366      4367
      4366      4368      4366      4369      4369      4370      4369      4371
      4369      4372      4372      4373      4372      4374      4372      4375
      4375      4376      4375      4377      4375      4378      4378      4379
      4378      4380      4378      4381      4381      4382      4381      4383
      4381      4384      4384      4385      4384      4386      4384      4387
      4387      4388      4387      4389      4387      4390      4390      4391
      4390      4392      4390      4393      4393      4394      4393      4395
      4393      4396      4396      4397      4396      4398      4396      4399
      4399      4400      4399      4401      4399      4402      4402      4403
      4402      4404      4402      4405      4406      4410      4406      4414
      4406      4418      4410      4411      4410      4412      4410      4413
      4414      4415      4414      4416      4414      4417      4418      4419
      4418      4420      4418      4421      4406      4407      4407      4408
      4407      4409      4407      4422      4422      4423      4422      4424
      4422      4428      4429      4430      4428      4425      4425      4429
      4425      4426      4425      4427      4430      4431      4430      4432
      4430      4433      4433      4434      4433      4441      4433      4435
      4441      4442      4441      4443      4441      4444      4435      4436
      4436      4438      4436      4437      4438      4439      4438      4440
      4438      4450      4450      4451      4450      4452      4450      4453
      4453      4454      4453      4455      4453      4456      4456      4457
      4456      4458      4458      4459      4458      4460      4460      4461
      4460      4462      4460      4463      4463      4464      4463      4465
      4465      4466      4465      4467      4467      4468      4467      4469
      4467      4470      4470      4471      4470      4472      4472      4473
      4472      4474      4474      4475      4474      4476      4474      4477
      4477      4478      4477      4479      4479      4480      4479      4481
      4481      4482      4481      4483      4481      4484      4484      4485
      4484      4486      4484      4487      4487      4488      4487      4489
      4487      4490      4490      4491      4490      4492      4490      4493
      4493      4494      4493      4495      4493      4496      4444      4445
      4445      4447      4445      4446      4447      4448      4447      4449
      4447      4497      4497      4498      4497      4499      4497      4500
      4500      4501      4500      4502      4500      4503      4503      4504
      4503      4505      4503      4506      4506      4507      4506      4508
      4506      4509      4509      4510      4509      4511      4509      4512
      4512      4513      4512      4514      4512      4515      4515      4516
      4515      4517      4515      4518      4518      4519      4518      4520
      4518      4521      4521      4522      4521      4523      4521      4524
      4524      4525      4524      4526      4524      4527      4527      4528
      4527      4529      4527      4530      4530      4531      4530      4532
      4530      4533      4533      4534      4533      4535      4533      4536
      4536      4537      4536      4538      4536      4539      4539      4540
      4539      4541      4539      4542      4542      4543      4542      4544
      4542      4545      4546      4547      4546      4551      4546      4555
      4547      4548      4547      4549      4547      4550      4551      4552
      4551      4553      4551      4554      4555      4556      4555      4557
      4555      4558      4546      4559      4559      4560      4559      4561
      4559      4562      4562      4563      4562      4564      4562      4568
      4569      4570      4568      4565      4565      4569      4565      4566
      4565      4567      4570      4571      4570      4572      4570      4573
      4573      4574      4573      4581      4573      4575      4581      4582
      4581      4583      4581      4584      4575      4576      4576      4578
      4576      4577      4578      4579      4578      4580      4578      4590
      4590      4591      4590      4592      4590      4593      4593      4594
      4593      4595      4593      4596      4596      4597      4596      4598
      4596      4599      4599      4600      4599      4601      4599      4602
      4602      4603      4602      4604      4602      4605      4605      4606
      4605      4607      4605      4608      4608      4609      4608      4610
      4610      4611      4610      4612      4612      4613      4612      4614
      4612      4615      4615      4616      4615      4617      4617      4618
      4617      4619      4619      4620      4619      4621      4619      4622
      4622      4623      4622      4624      4622      4625      4625      4626
      4625      4627      4625      4628      4628      4629      4628      4630
      4628      4631      4631      4632      4631      4633      4631      4634
      4584      4585      4585      4587      4585      4586      4587      4588
      4587      4589      4587      4635      4635      4636      4635      4637
      4635      4638      4638      4639      4638      4640      4638      4641
      4641      4642      4641      4643      4641      4644      4644      4645
      4644      4646      4644      4647      4647      4648      4647      4649
      4647      4650      4650      4651      4650      4652      4650      4653
      4653      4654      4653      4655      4653      4656      4656      4657
      4656      4658      4656      4659      4659      4660      4659      4661
      4659      4662      4662      4663      4662      4664      4662      4665
      4665      4666      4665      4667      4665      4668      4668      4669
      4668      4670      4668      4671      4671      4672      4671      4673
      4671      4674      4674      4675      4674      4676      4674      4677
      4677      4678      4677      4679      4677      4680      4680      4681
      4680      4682      4680      4683      4684      4686      4684      4685
      4686      4687      4684      4730      4730      4731      4730      4732
      4730      4727      4727      4728      4727      4729      4684      4688
      4688      4689      4688      4690      4688      4691      4691      4722
      4722      4727      4722      4723      4723      4724      4723      4725
      4723      4726      4691      4692      4692      4693      4692      4694
      4694      4695      4694      4696      4694      4697      4697      4698
      4697      4720      4720      4721      4720      4722      4697      4699
      4699      4700      4699      4709      4709      4714      4714      4715
      4714      4716      4714      4717      4717      4718      4717      4719
      4717      4720      4709      4710      4710      4711      4710      4712
      4710      4713      4699      4701      4701      4702      4701      4703
      4701      4704      4704      4705      4704      4706      4704      4707
      4707      4708      4707      4709      4707      4733      4733      4734
      4733      4735      4735      4736      4735      4737      4735      4738
      4733      4739      4739      4740      4739      4741      4739      4742
      4742      4743      4742      4744      4742      4745      4745      4746
      4745      4747      4745      4748      4748      4749      4748      4750
      4750      4751      4750      4752      4750      4753      4748      4754
      4754      4755      4754      4756      4754      4757      4758      4760
      4758      4759      4760      4761      4758      4804      4804      4805
      4804      4806      4804      4801      4801      4802      4801      4803
      4758      4762      4762      4763      4762      4764      4762      4765
      4765      4796      4796      4801      4796      4797      4797      4798
      4797      4799      4797      4800      4765      4766      4766      4767
      4766      4768      4768      4769      4768      4770      4768      4771
      4771      4772      4771      4794      4794      4795      4794      4796
      4771      4773      4773      4774      4773      4783      4783      4788
      4788      4789      4788      4790      4788      4791      4791      4792
      4791      4793      4791      4794      4783      4784      4784      4785
      4784      4786      4784      4787      4773      4775      4775      4776
      4775      4777      4775      4778      4778      4779      4778      4780
      4778      4781      4781      4782      4781      4783      4781      4807
      4807      4808      4807      4809      4809      4810      4809      4811
      4809      4812      4807      4813      4813      4814      4813      4815
      4813      4816      4816      4817      4816      4818      4816      4819
      4819      4820      4819      4821      4819      4822      4822      4823
      4822      4824      4824      4825      4824      4826      4824      4827
      4822      4828      4828      4829      4828      4830      4828      4831
      4832      4834      4832      4833      4834      4835      4832      4878
      4878      4879      4878      4880      4878      4875      4875      4876
      4875      4877      4832      4836      4836      4837      4836      4838
      4836      4839      4839      4870      4870      4875      4870      4871
      4871      4872      4871      4873      4871      4874      4839      4840
      4840      4841      4840      4842      4842      4843      4842      4844
      4842      4845      4845      4846      4845      4868      4868      4869
      4868      4870      4845      4847      4847      4848      4847      4857
      4857      4862      4862      4863      4862      4864      4862      4865
      4865      4866      4865      4867      4865      4868      4857      4858
      4858      4859      4858      4860      4858      4861      4847      4849
      4849      4850      4849      4851      4849      4852      4852      4853
      4852      4854      4852      4855      4855      4856      4855      4857
      4855      4881      4881      4882      4881      4883      4883      4884
      4883      4885      4883      4886      4881      4887      4887      4888
      4887      4889      4887      4890      4890      4891      4890      4892
      4890      4893      4893      4894      4893      4895      4893      4896
      4896      4897      4896      4898      4898      4899      4898      4900
      4898      4901      4896      4902      4902      4903      4902      4904
      4902      4905      4906      4908      4906      4907      4908      4909
      4906      4952      4952      4953      4952      4954      4952      4949
      4949      4950      4949      4951      4906      4910      4910      4911
      4910      4912      4910      4913      4913      4944      4944      4949
      4944      4945      4945      4946      4945      4947      4945      4948
      4913      4914      4914      4915      4914      4916      4916      4917
      4916      4918      4916      4919      4919      4920      4919      4942
      4942      4943      4942      4944      4919      4921      4921      4922
      4921      4931      4931      4936      4936      4937      4936      4938
      4936      4939      4939      4940      4939      4941      4939      4942
      4931      4932      4932      4933      4932      4934      4932      4935
      4921      4923      4923      4924      4923      4925      4923      4926
      4926      4927      4926      4928      4926      4929      4929      4930
      4929      4931      4929      4955      4955      4956      4955      4957
      4957      4958      4957      4959      4957      4960      4955      4961
      4961      4962      4961      4963      4961      4964      4964      4965
      4964      4966      4964      4967      4967      4968      4967      4969
      4967      4970      4970      4971      4970      4972      4972      4973
      4972      4974      4972      4975      4970      4976      4976      4977
      4976      4978      4976      4979      4980      4981      4980      4982
      4980      4983      4980      4984      4988      4986      4986      4984
      4986      4987      4984      4985      4984      4989      4997      4996
      4989      4990      4989      4991      4989      4995      4995      4992
      4992      4996      4992      4993      4992      4994      4997      4998
      4997      4999      4997      5000      5000      5001      5000      5008
      5000      5002      5008      5009      5008      5010      5008      5011
      5002      5003      5003      5005      5003      5004      5005      5006
      5005      5007      5005      5017      5017      5018      5017      5019
      5017      5020      5020      5021      5020      5022      5020      5023
      5023      5024      5023      5025      5025      5026      5025      5027
      5027      5028      5027      5029      5027      5030      5030      5031
      5030      5032      5032      5033      5032      5034      5034      5035
      5034      5036      5034      5037      5037      5038      5037      5039
      5039      5040      5039      5041      5041      5042      5041      5043
      5041      5044      5044      5045      5044      5046      5046      5047
      5046      5048      5048      5049      5048      5050      5048      5051
      5051      5052      5051      5053      5051      5054      5054      5055
      5054      5056      5054      5057      5057      5058      5057      5059
      5057      5060      5060      5061      5060      5062      5060      5063
      5011      5012      5012      5014      5012      5013      5014      5015
      5014      5016      5014      5064      5064      5065      5064      5066
      5064      5067      5067      5068      5067      5069      5067      5070
      5070      5071      5070      5072      5070      5073      5073      5074
      5073      5075      5073      5076      5076      5077      5076      5078
      5076      5079      5079      5080      5079      5081      5079      5082
      5082      5083      5082      5084      5082      5085      5085      5086
      5085      5087      5085      5088      5088      5089      5088      5090
      5088      5091      5091      5092      5091      5093      5091      5094
      5094      5095      5094      5096      5094      5097      5097      5098
      5097      5099      5097      5100      5100      5101      5100      5102
      5100      5103      5103      5104      5103      5105      5103      5106
      5106      5107      5106      5108      5106      5109      5109      5110
      5109      5111      5109      5112      5113      5114      5113      5115
      5113      5116      5113      5117      5117      5118      5117      5119
      5117      5120      5120      5121      5120      5122      5120      5126
      5128      5127      5126      5123      5123      5127      5123      5124
      5123      5125      5128      5129      5128      5130      5128      5131
      5131      5132      5131      5139      5131      5133      5139      5140
      5139      5141      5139      5142      5133      5134      5134      5136
      5134      5135      5136      5137      5136      5138      5136      5148
      5148      5149      5148      5150      5148      5151      5151      5152
      5151      5153      5151      5154      5154      5155      5154      5156
      5156      5157      5156      5158      5158      5159      5158      5160
      5158      5161      5161      5162      5161      5163      5163      5164
      5163      5165      5165      5166      5165      5167      5165      5168
      5168      5169      5168      5170      5170      5171      5170      5172
      5172      5173      5172      5174      5172      5175      5175      5176
      5175      5177      5177      5178      5177      5179      5179      5180
      5179      5181      5179      5182      5182      5183      5182      5184
      5182      5185      5185      5186      5185      5187      5185      5188
      5188      5189      5188      5190      5188      5191      5191      5192
      5191      5193      5191      5194      5142      5143      5143      5145
      5143      5144      5145      5146      5145      5147      5145      5195
      5195      5196      5195      5197      5195      5198      5198      5199
      5198      5200      5198      5201      5201      5202      5201      5203
      5201      5204      5204      5205      5204      5206      5204      5207
      5207      5208      5207      5209      5207      5210      5210      5211
      5210      5212      5210      5213      5213      5214      5213      5215
      5213      5216      5216      5217      5216      5218      5216      5219
      5219      5220      5219      5221      5219      5222      5222      5223
      5222      5224      5222      5225      5225      5226      5225      5227
      5225      5228      5228      5229      5228      5230      5228      5231
      5231      5232      5231      5233      5231      5234      5234      5235
      5234      5236      5234      5237      5237      5238      5237      5239
      5237      5240      5240      5241      5240      5242      5240      5243
      5244      5246      5244      5245      5246      5247      5244      5290
      5290      5291      5290      5292      5290      5287      5287      5288
      5287      5289      5244      5248      5248      5249      5248      5250
      5248      5251      5251      5282      5282      5287      5282      5283
      5283      5284      5283      5285      5283      5286      5251      5252
      5252      5253      5252      5254      5254      5255      5254      5256
      5254      5257      5257      5258      5257      5280      5280      5281
      5280      5282      5257      5259      5259      5260      5259      5269
      5269      5274      5274      5275      5274      5276      5274      5277
      5277      5278      5277      5279      5277      5280      5269      5270
      5270      5271      5270      5272      5270      5273      5259      5261
      5261      5262      5261      5263      5261      5264      5264      5265
      5264      5266      5264      5267      5267      5268      5267      5269
      5267      5293      5293      5294      5293      5295      5295      5296
      5295      5297      5295      5298      5293      5299      5299      5300
      5299      5301      5299      5302      5302      5303      5302      5304
      5302      5305      5305      5306      5305      5307      5305      5308
      5308      5309      5308      5310      5310      5311      5310      5312
      5310      5313      5308      5314      5314      5315      5314      5316
      5314      5317      5318      5320      5318      5319      5320      5321
      5318      5364      5364      5365      5364      5366      5364      5361
      5361      5362      5361      5363      5318      5322      5322      5323
      5322      5324      5322      5325      5325      5356      5356      5361
      5356      5357      5357      5358      5357      5359      5357      5360
      5325      5326      5326      5327      5326      5328      5328      5329
      5328      5330      5328      5331      5331      5332      5331      5354
      5354      5355      5354      5356      5331      5333      5333      5334
      5333      5343      5343      5348      5348      5349      5348      5350
      5348      5351      5351      5352      5351      5353      5351      5354
      5343      5344      5344      5345      5344      5346      5344      5347
      5333      5335      5335      5336      5335      5337      5335      5338
      5338      5339      5338      5340      5338      5341      5341      5342
      5341      5343      5341      5367      5367      5368      5367      5369
      5369      5370      5369      5371      5369      5372      5367      5373
      5373      5374      5373      5375      5373      5376      5376      5377
      5376      5378      5376      5379      5379      5380      5379      5381
      5379      5382      5382      5383      5382      5384      5384      5385
      5384      5386      5384      5387      5382      5388      5388      5389
      5388      5390      5388      5391      5392      5396      5392      5400
      5392      5404      5396      5397      5396      5398      5396      5399
      5400      5401      5400      5402      5400      5403      5404      5405
      5404      5406      5404      5407      5392      5393      5393      5394
      5393      5395      5393      5408      5408      5409      5408      5410
      5408      5414      5415      5416      5414      5411      5411      5415
      5411      5412      5411      5413      5416      5417      5416      5418
      5416      5419      5419      5420      5419      5427      5419      5421
      5427      5428      5427      5429      5427      5430      5421      5422
      5422      5424      5422      5423      5424      5425      5424      5426
      5424      5436      5436      5437      5436      5438      5436      5439
      5439      5440      5439      5441      5439      5442      5442      5443
      5442      5444      5444      5445      5444      5446      5446      5447
      5446      5448      5446      5449      5449      5450      5449      5451
      5451      5452      5451      5453      5453      5454      5453      5455
      5453      5456      5456      5457      5456      5458      5458      5459
      5458      5460      5460      5461      5460      5462      5460      5463
      5463      5464      5463      5465      5465      5466      5465      5467
      5467      5468      5467      5469      5467      5470      5470      5471
      5470      5472      5470      5473      5473      5474      5473      5475
      5473      5476      5476      5477      5476      5478      5476      5479
      5479      5480      5479      5481      5479      5482      5430      5431
      5431      5433      5431      5432      5433      5434      5433      5435
      5433      5483      5483      5484      5483      5485      5483      5486
      5486      5487      5486      5488      5486      5489      5489      5490
      5489      5491      5489      5492      5492      5493      5492      5494
      5492      5495      5495      5496      5495      5497      5495      5498
      5498      5499      5498      5500      5498      5501      5501      5502
      5501      5503      5501      5504      5504      5505      5504      5506
      5504      5507      5507      5508      5507      5509      5507      5510
      5510      5511      5510      5512      5510      5513      5513      5514
      5513      5515      5513      5516      5516      5517      5516      5518
      5516      5519      5519      5520      5519      5521      5519      5522
      5522      5523      5522      5524      5522      5525      5525      5526
      5525      5527      5525      5528      5528      5529      5528      5530
      5528      5531      5532      5536      5532      5540      5532      5544
      5536      5537      5536      5538      5536      5539      5540      5541
      5540      5542      5540      5543      5544      5545      5544      5546
      5544      5547      5532      5533      5533      5534      5533      5535
      5533      5548      5548      5549      5548      5550      5548      5554
      5555      5556      5554      5551      5551      5555      5551      5552
      5551      5553      5556      5557      5556      5558      5556      5559
      5559      5560      5559      5567      5559      5561      5567      5568
      5567      5569      5567      5570      5561      5562      5562      5564
      5562      5563      5564      5565      5564      5566      5564      5576
      5576      5577      5576      5578      5576      5579      5579      5580
      5579      5581      5579      5582      5582      5583      5582      5584
      5582      5585      5585      5586      5585      5587      5585      5588
      5588      5589      5588      5590      5588      5591      5591      5592
      5591      5593      5591      5594      5594      5595      5594      5596
      5596      5597      5596      5598      5598      5599      5598      5600
      5598      5601      5601      5602      5601      5603      5601      5604
      5604      5605      5604      5606      5604      5607      5607      5608
      5607      5609      5607      5610      5610      5611      5610      5612
      5610      5613      5613      5614      5613      5615      5613      5616
      5616      5617      5616      5618      5616      5619      5619      5620
      5619      5621      5619      5622      5570      5571      5571      5573
      5571      5572      5573      5574      5573      5575      5573      5623
      5623      5624      5623      5625      5623      5626      5626      5627
      5626      5628      5626      5629      5629      5630      5629      5631
      5629      5632      5632      5633      5632      5634      5632      5635
      5635      5636      5635      5637      5635      5638      5638      5639
      5638      5640      5638      5641      5641      5642      5641      5643
      5641      5644      5644      5645      5644      5646      5644      5647
      5647      5648      5647      5649      5647      5650      5650      5651
      5650      5652      5650      5653      5653      5654      5653      5655
      5653      5656      5656      5657      5656      5658      5656      5659
      5659      5660      5659      5661      5659      5662      5662      5663
      5662      5664      5662      5665      5666      5668      5666      5667
      5668      5669      5666      5712      5712      5713      5712      5714
      5712      5709      5709      5710      5709      5711      5666      5670
      5670      5671      5670      5672      5670      5673      5673      5704
      5704      5709      5704      5705      5705      5706      5705      5707
      5705      5708      5673      5674      5674      5675      5674      5676
      5676      5677      5676      5678      5676      5679      5679      5680
      5679      5702      5702      5703      5702      5704      5679      5681
      5681      5682      5681      5691      5691      5696      5696      5697
      5696      5698      5696      5699      5699      5700      5699      5701
      5699      5702      5691      5692      5692      5693      5692      5694
      5692      5695      5681      5683      5683      5684      5683      5685
      5683      5686      5686      5687      5686      5688      5686      5689
      5689      5690      5689      5691      5689      5715      5715      5716
      5715      5717      5717      5718      5717      5719      5717      5720
      5715      5721      5721      5722      5721      5723      5721      5724
      5724      5725      5724      5726      5724      5727      5727      5728
      5727      5729      5727      5730      5730      5731      5730      5732
      5732      5733      5732      5734      5732      5735      5730      5736
      5736      5737      5736      5738      5736      5739      5740      5742
      5740      5741      5742      5743      5740      5786      5786      5787
      5786      5788      5786      5783      5783      5784      5783      5785
      5740      5744      5744      5745      5744      5746      5744      5747
      5747      5778      5778      5783      5778      5779      5779      5780
      5779      5781      5779      5782      5747      5748      5748      5749
      5748      5750      5750      5751      5750      5752      5750      5753
      5753      5754      5753      5776      5776      5777      5776      5778
      5753      5755      5755      5756      5755      5765      5765      5770
      5770      5771      5770      5772      5770      5773      5773      5774
      5773      5775      5773      5776      5765      5766      5766      5767
      5766      5768      5766      5769      5755      5757      5757      5758
      5757      5759      5757      5760      5760      5761      5760      5762
      5760      5763      5763      5764      5763      5765      5763      5789
      5789      5790      5789      5791      5791      5792      5791      5793
      5791      5794      5789      5795      5795      5796      5795      5797
      5795      5798      5798      5799      5798      5800      5798      5801
      5801      5802      5801      5803      5801      5804      5804      5805
      5804      5806      5806      5807      5806      5808      5806      5809
      5804      5810      5810      5811      5810      5812      5810      5813
      5889      5890      5889      5891      5889      5892      5889      5886
      5886      5887      5886      5888      5886      5883      5883      5884
      5883      5885      5883      5880      5880      5881      5880      5882
      5880      5877      5877      5878      5877      5879      5877      5874
      5874      5875      5874      5876      5874      5871      5871      5872
      5871      5873      5871      5868      5868      5869      5868      5870
      5868      5865      5865      5866      5865      5867      5865      5862
      5862      5863      5862      5864      5862      5859      5859      5860
      5859      5861      5859      5856      5856      5857      5856      5858
      5856      5853      5853      5854      5853      5855      5853      5851
      5851      5852      5849      5850      5849      5845      5845      5846
      5845      5847      5847      5848      5845      5843      5843      5844
      5843      5838      5838      5839      5838      5840      5838      5836
      5836      5833      5837      5833      5834      5833      5835      5833
      5837      5830      5830      5831      5830      5832      5830      5827
      5827      5828      5827      5829      5827      5814      5814      5823
      5814      5819      5814      5815      5823      5824      5823      5825
      5823      5826      5819      5820      5819      5821      5819      5822
      5815      5816      5815      5817      5815      5818      5843      5841
      5841      5842      5841      5893      5893      5895      5895      5896
      5895      5897      5895      5898      5898      5899      5898      5900
      5898      5901      5901      5902      5901      5903      5901      5904
      5904      5905      5904      5906      5904      5907      5907      5908
      5907      5909      5907      5910      5910      5911      5910      5912
      5910      5913      5913      5914      5913      5915      5913      5916
      5916      5917      5918      5919      5918      5920      5920      5921
      5920      5922      5920      5923      5923      5924      5923      5925
      5923      5926      5926      5927      5926      5928      5926      5929
      5929      5930      5929      5931      5929      5932      5932      5933
      5932      5934      5932      5935      5935      5936      5935      5937
      5935      5938      5938      5939      5938      5940      5938      5941
      5941      5942      5941      5943      5941      5944      5849      5851
      5916      5918      5893      5894      5945      5949      5945      5953
      5945      5957      5949      5950      5949      5951      5949      5952
      5953      5954      5953      5955      5953      5956      5957      5958
      5957      5959      5957      5960      5945      5946      5946      5947
      5946      5948      5946      5961      5961      5962      5961      5963
      5961      5967      5968      5969      5967      5964      5964      5968
      5964      5965      5964      5966      5969      5970      5969      5971
      5969      5972      5972      5973      5972      5980      5972      5974
      5980      5981      5980      5982      5980      5983      5974      5975
      5975      5977      5975      5976      5977      5978      5977      5979
      5977      5989      5989      5990      5989      5991      5989      5992
      5992      5993      5992      5994      5992      5995      5995      5996
      5995      5997      5997      5998      5997      5999      5999      6000
      5999      6001      5999      6002      6002      6003      6002      6004
      6004      6005      6004      6006      6006      6007      6006      6008
      6006      6009      6009      6010      6009      6011      6011      6012
      6011      6013      6013      6014      6013      6015      6013      6016
      6016      6017      6016      6018      6018      6019      6018      6020
      6020      6021      6020      6022      6020      6023      6023      6024
      6023      6025      6023      6026      6026      6027      6026      6028
      6026      6029      6029      6030      6029      6031      6029      6032
      6032      6033      6032      6034      6032      6035      5983      5984
      5984      5986      5984      5985      5986      5987      5986      5988
      5986      6036      6036      6037      6036      6038      6036      6039
      6039      6040      6039      6041      6039      6042      6042      6043
      6042      6044      6042      6045      6045      6046      6045      6047
      6045      6048      6048      6049      6048      6050      6048      6051
      6051      6052      6051      6053      6051      6054      6054      6055
      6054      6056      6054      6057      6057      6058      6057      6059
      6057      6060      6060      6061      6060      6062      6060      6063
      6063      6064      6063      6065      6063      6066      6066      6067
      6066      6068      6066      6069      6069      6070      6069      6071
      6069      6072      6072      6073      6072      6074      6072      6075
      6075      6076      6075      6077      6075      6078      6078      6079
      6078      6080      6078      6081      6081      6082      6081      6083
      6081      6084      6160      6161      6160      6162      6160      6163
      6160      6157      6157      6158      6157      6159      6157      6154
      6154      6155      6154      6156      6154      6151      6151      6152
      6151      6153      6151      6148      6148      6149      6148      6150
      6148      6145      6145      6146      6145      6147      6145      6142
      6142      6143      6142      6144      6142      6139      6139      6140
      6139      6141      6139      6136      6136      6137      6136      6138
      6136      6133      6133      6134      6133      6135      6133      6130
      6130      6131      6130      6132      6130      6127      6127      6128
      6127      6129      6127      6124      6124      6125      6124      6126
      6124      6122      6122      6123      6120      6121      6120      6116
      6116      6117      6116      6118      6118      6119      6116      6114
      6114      6115      6114      6109      6109      6110      6109      6111
      6109      6107      6107      6104      6108      6104      6105      6104
      6106      6104      6108      6101      6101      6102      6101      6103
      6101      6098      6098      6099      6098      6100      6098      6085
      6085      6094      6085      6090      6085      6086      6094      6095
      6094      6096      6094      6097      6090      6091      6090      6092
      6090      6093      6086      6087      6086      6088      6086      6089
      6114      6112      6112      6113      6112      6164      6164      6166
      6166      6167      6166      6168      6166      6169      6169      6170
      6169      6171      6169      6172      6172      6173      6172      6174
      6172      6175      6175      6176      6175      6177      6175      6178
      6178      6179      6178      6180      6178      6181      6181      6182
      6181      6183      6181      6184      6184      6185      6184      6186
      6184      6187      6187      6188      6189      6190      6189      6191
      6191      6192      6191      6193      6191      6194      6194      6195
      6194      6196      6194      6197      6197      6198      6197      6199
      6197      6200      6200      6201      6200      6202      6200      6203
      6203      6204      6203      6205      6203      6206      6206      6207
      6206      6208      6206      6209      6209      6210      6209      6211
      6209      6212      6212      6213      6212      6214      6212      6215
      6120      6122      6187      6189      6164      6165      6216      6217
      6216      6218      6216      6219      6216      6220      6220      6221
      6220      6222      6220      6223      6223      6224      6223      6225
      6223      6229      6231      6230      6229      6226      6226      6230
      6226      6227      6226      6228      6231      6232      6231      6233
      6231      6234      6234      6235      6234      6242      6234      6236
      6242      6243      6242      6244      6242      6245      6236      6237
      6237      6239      6237      6238      6239      6240      6239      6241
      6239      6251      6251      6252      6251      6253      6251      6254
      6254      6255      6254      6256      6254      6257      6257      6258
      6257      6259      6259      6260      6259      6261      6261      6262
      6261      6263      6261      6264      6264      6265      6264      6266
      6266      6267      6266      6268      6268      6269      6268      6270
      6268      6271      6271      6272      6271      6273      6273      6274
      6273      6275      6275      6276      6275      6277      6275      6278
      6278      6279      6278      6280      6280      6281      6280      6282
      6282      6283      6282      6284      6282      6285      6285      6286
      6285      6287      6285      6288      6288      6289      6288      6290
      6288      6291      6291      6292      6291      6293      6291      6294
      6294      6295      6294      6296      6294      6297      6245      6246
      6246      6248      6246      6247      6248      6249      6248      6250
      6248      6298      6298      6299      6298      6300      6298      6301
      6301      6302      6301      6303      6301      6304      6304      6305
      6304      6306      6304      6307      6307      6308      6307      6309
      6307      6310      6310      6311      6310      6312      6310      6313
      6313      6314      6313      6315      6313      6316      6316      6317
      6316      6318      6316      6319      6319      6320      6319      6321
      6319      6322      6322      6323      6322      6324      6322      6325
      6325      6326      6325      6327      6325      6328      6328      6329
      6328      6330      6328      6331      6331      6332      6331      6333
      6331      6334      6334      6335      6334      6336      6334      6337
      6337      6338      6337      6339      6337      6340      6340      6341
      6340      6342      6340      6343      6343      6344      6343      6345
      6343      6346      6422      6423      6422      6424      6422      6425
      6422      6419      6419      6420      6419      6421      6419      6416
      6416      6417      6416      6418      6416      6413      6413      6414
      6413      6415      6413      6410      6410      6411      6410      6412
      6410      6407      6407      6408      6407      6409      6407      6404
      6404      6405      6404      6406      6404      6401      6401      6402
      6401      6403      6401      6398      6398      6399      6398      6400
      6398      6395      6395      6396      6395      6397      6395      6392
      6392      6393      6392      6394      6392      6389      6389      6390
      6389      6391      6389      6386      6386      6387      6386      6388
      6386      6384      6384      6385      6382      6383      6382      6378
      6378      6379      6378      6380      6380      6381      6378      6376
      6376      6377      6376      6371      6371      6372      6371      6373
      6371      6369      6369      6366      6370      6366      6367      6366
      6368      6366      6370      6363      6363      6364      6363      6365
      6363      6360      6360      6361      6360      6362      6360      6347
      6347      6356      6347      6352      6347      6348      6356      6357
      6356      6358      6356      6359      6352      6353      6352      6354
      6352      6355      6348      6349      6348      6350      6348      6351
      6376      6374      6374      6375      6374      6426      6426      6428
      6428      6429      6428      6430      6428      6431      6431      6432
      6431      6433      6431      6434      6434      6435      6434      6436
      6434      6437      6437      6438      6437      6439      6437      6440
      6440      6441      6440      6442      6440      6443      6443      6444
      6443      6445      6443      6446      6446      6447      6446      6448
      6446      6449      6449      6450      6451      6452      6451      6453
      6453      6454      6453      6455      6453      6456      6456      6457
      6456      6458      6456      6459      6459      6460      6459      6461
      6459      6462      6462      6463      6462      6464      6462      6465
      6465      6466      6465      6467      6465      6468      6468      6469
      6468      6470      6468      6471      6471      6472      6471      6473
      6471      6474      6474      6475      6474      6476      6474      6477
      6382      6384      6449      6451      6426      6427      6553      6554
      6553      6555      6553      6556      6553      6550      6550      6551
      6550      6552      6550      6547      6547      6548      6547      6549
      6547      6544      6544      6545      6544      6546      6544      6541
      6541      6542      6541      6543      6541      6538      6538      6539
      6538      6540      6538      6535      6535      6536      6535      6537
      6535      6532      6532      6533      6532      6534      6532      6529
      6529      6530      6529      6531      6529      6526      6526      6527
      6526      6528      6526      6523      6523      6524      6523      6525
      6523      6520      6520      6521      6520      6522      6520      6517
      6517      6518      6517      6519      6517      6515      6515      6516
      6513      6514      6513      6509      6509      6510      6509      6511
      6511      6512      6509      6507      6507      6508      6507      6502
      6502      6503      6502      6504      6502      6500      6500      6497
      6501      6497      6498      6497      6499      6497      6501      6494
      6494      6495      6494      6496      6494      6491      6491      6492
      6491      6493      6491      6478      6478      6487      6478      6483
      6478      6479      6487      6488      6487      6489      6487      6490
      6483      6484      6483      6485      6483      6486      6479      6480
      6479      6481      6479      6482      6507      6505      6505      6506
      6505      6557      6557      6559      6559      6560      6559      6561
      6559      6562      6562      6563      6562      6564      6562      6565
      6565      6566      6565      6567      6565      6568      6568      6569
      6568      6570      6568      6571      6571      6572      6571      6573
      6571      6574      6574      6575      6574      6576      6574      6577
      6577      6578      6577      6579      6577      6580      6580      6581
      6582      6583      6582      6584      6584      6585      6584      6586
      6584      6587      6587      6588      6587      6589      6587      6590
      6590      6591      6590      6592      6590      6593      6593      6594
      6593      6595      6593      6596      6596      6597      6596      6598
      6596      6599      6599      6600      6599      6601      6599      6602
      6602      6603      6602      6604      6602      6605      6605      6606
      6605      6607      6605      6608      6513      6515      6580      6582
      6557      6558      6609      6610      6609      6611      6609      6612
      6609      6613      6613      6614      6613      6615      6613      6616
      6616      6617      6616      6618      6616      6622      6624      6623
      6622      6619      6619      6623      6619      6620      6619      6621
      6624      6625      6624      6626      6624      6627      6627      6628
      6627      6635      6627      6629      6635      6636      6635      6637
      6635      6638      6629      6630      6630      6632      6630      6631
      6632      6633      6632      6634      6632      6644      6644      6645
      6644      6646      6644      6647      6647      6648      6647      6649
      6647      6650      6650      6651      6650      6652      6650      6653
      6653      6654      6653      6655      6653      6656      6656      6657
      6656      6658      6656      6659      6659      6660      6659      6661
      6659      6662      6662      6663      6662      6664      6664      6665
      6664      6666      6666      6667      6666      6668      6666      6669
      6669      6670      6669      6671      6669      6672      6672      6673
      6672      6674      6672      6675      6675      6676      6675      6677
      6675      6678      6678      6679      6678      6680      6678      6681
      6681      6682      6681      6683      6681      6684      6684      6685
      6684      6686      6684      6687      6687      6688      6687      6689
      6687      6690      6638      6639      6639      6641      6639      6640
      6641      6642      6641      6643      6641      6691      6691      6692
      6691      6693      6691      6694      6694      6695      6694      6696
      6694      6697      6697      6698      6697      6699      6697      6700
      6700      6701      6700      6702      6700      6703      6703      6704
      6703      6705      6703      6706      6706      6707      6706      6708
      6706      6709      6709      6710      6709      6711      6709      6712
      6712      6713      6712      6714      6712      6715      6715      6716
      6715      6717      6715      6718      6718      6719      6718      6720
      6718      6721      6721      6722      6721      6723      6721      6724
      6724      6725      6724      6726      6724      6727      6727      6728
      6727      6729      6727      6730      6730      6731      6730      6732
      6730      6733      6733      6734      6733      6735      6733      6736
      6736      6737      6736      6738      6736      6739      6740      6741
      6740      6742      6740      6743      6740      6744      6744      6745
      6744      6746      6744      6747      6747      6748      6747      6749
      6747      6753      6755      6754      6753      6750      6750      6754
      6750      6751      6750      6752      6755      6756      6755      6757
      6755      6758      6758      6759      6758      6766      6758      6760
      6766      6767      6766      6768      6766      6769      6760      6761
      6761      6763      6761      6762      6763      6764      6763      6765
      6763      6775      6775      6776      6775      6777      6775      6778
      6778      6779      6778      6780      6778      6781      6781      6782
      6781      6783      6781      6784      6784      6785      6784      6786
      6784      6787      6787      6788      6787      6789      6787      6790
      6790      6791      6790      6792      6790      6793      6793      6794
      6793      6795      6795      6796      6795      6797      6797      6798
      6797      6799      6797      6800      6800      6801      6800      6802
      6800      6803      6803      6804      6803      6805      6803      6806
      6806      6807      6806      6808      6806      6809      6809      6810
      6809      6811      6809      6812      6812      6813      6812      6814
      6812      6815      6815      6816      6815      6817      6815      6818
      6818      6819      6818      6820      6818      6821      6769      6770
      6770      6772      6770      6771      6772      6773      6772      6774
      6772      6822      6822      6823      6822      6824      6822      6825
      6825      6826      6825      6827      6825      6828      6828      6829
      6828      6830      6828      6831      6831      6832      6831      6833
      6831      6834      6834      6835      6834      6836      6834      6837
      6837      6838      6837      6839      6837      6840      6840      6841
      6840      6842      6840      6843      6843      6844      6843      6845
      6843      6846      6846      6847      6846      6848      6846      6849
      6849      6850      6849      6851      6849      6852      6852      6853
      6852      6854      6852      6855      6855      6856      6855      6857
      6855      6858      6858      6859      6858      6860      6858      6861
      6861      6862      6861      6863      6861      6864      6864      6865
      6864      6866      6864      6867      6867      6868      6867      6869
      6867      6870      6871      6872      6871      6873      6871      6874
      6871      6875      6879      6877      6877      6875      6877      6878
      6875      6876      6875      6880      6888      6887      6880      6881
      6880      6882      6880      6886      6886      6883      6883      6887
      6883      6884      6883      6885      6888      6889      6888      6890
      6888      6891      6891      6892      6891      6899      6891      6893
      6899      6900      6899      6901      6899      6902      6893      6894
      6894      6896      6894      6895      6896      6897      6896      6898
      6896      6908      6908      6909      6908      6910      6908      6911
      6911      6912      6911      6913      6911      6914      6914      6915
      6914      6916      6916      6917      6916      6918      6918      6919
      6918      6920      6918      6921      6921      6922      6921      6923
      6923      6924      6923      6925      6925      6926      6925      6927
      6925      6928      6928      6929      6928      6930      6930      6931
      6930      6932      6932      6933      6932      6934      6932      6935
      6935      6936      6935      6937      6937      6938      6937      6939
      6939      6940      6939      6941      6939      6942      6942      6943
      6942      6944      6942      6945      6945      6946      6945      6947
      6945      6948      6948      6949      6948      6950      6948      6951
      6951      6952      6951      6953      6951      6954      6902      6903
      6903      6905      6903      6904      6905      6906      6905      6907
      6905      6955      6955      6956      6955      6957      6955      6958
      6958      6959      6958      6960      6958      6961      6961      6962
      6961      6963      6961      6964      6964      6965      6964      6966
      6964      6967      6967      6968      6967      6969      6967      6970
      6970      6971      6970      6972      6970      6973      6973      6974
      6973      6975      6973      6976      6976      6977      6976      6978
      6976      6979      6979      6980      6979      6981      6979      6982
      6982      6983      6982      6984      6982      6985      6985      6986
      6985      6987      6985      6988      6988      6989      6988      6990
      6988      6991      6991      6992      6991      6993      6991      6994
      6994      6995      6994      6996      6994      6997      6997      6998
      6997      6999      6997      7000      7000      7001      7000      7002
      7000      7003      7079      7080      7079      7081      7079      7082
      7079      7076      7076      7077      7076      7078      7076      7073
      7073      7074      7073      7075      7073      7070      7070      7071
      7070      7072      7070      7067      7067      7068      7067      7069
      7067      7064      7064      7065      7064      7066      7064      7061
      7061      7062      7061      7063      7061      7058      7058      7059
      7058      7060      7058      7055      7055      7056      7055      7057
      7055      7052      7052      7053      7052      7054      7052      7049
      7049      7050      7049      7051      7049      7046      7046      7047
      7046      7048      7046      7043      7043      7044      7043      7045
      7043      7041      7041      7042      7039      7040      7039      7035
      7035      7036      7035      7037      7037      7038      7035      7033
      7033      7034      7033      7028      7028      7029      7028      7030
      7028      7026      7026      7023      7027      7023      7024      7023
      7025      7023      7027      7020      7020      7021      7020      7022
      7020      7017      7017      7018      7017      7019      7017      7004
      7004      7013      7004      7009      7004      7005      7013      7014
      7013      7015      7013      7016      7009      7010      7009      7011
      7009      7012      7005      7006      7005      7007      7005      7008
      7033      7031      7031      7032      7031      7083      7083      7085
      7085      7086      7085      7087      7085      7088      7088      7089
      7088      7090      7088      7091      7091      7092      7091      7093
      7091      7094      7094      7095      7094      7096      7094      7097
      7097      7098      7097      7099      7097      7100      7100      7101
      7100      7102      7100      7103      7103      7104      7103      7105
      7103      7106      7106      7107      7108      7109      7108      7110
      7110      7111      7110      7112      7110      7113      7113      7114
      7113      7115      7113      7116      7116      7117      7116      7118
      7116      7119      7119      7120      7119      7121      7119      7122
      7122      7123      7122      7124      7122      7125      7125      7126
      7125      7127      7125      7128      7128      7129      7128      7130
      7128      7131      7131      7132      7131      7133      7131      7134
      7039      7041      7106      7108      7083      7084      7135      7136
      7135      7137      7135      7138      7135      7139      7139      7140
      7139      7141      7139      7142      7142      7143      7142      7144
      7142      7148      7150      7149      7148      7145      7145      7149
      7145      7146      7145      7147      7150      7151      7150      7152
      7150      7153      7153      7154      7153      7161      7153      7155
      7161      7162      7161      7163      7161      7164      7155      7156
      7156      7158      7156      7157      7158      7159      7158      7160
      7158      7170      7170      7171      7170      7172      7170      7173
      7173      7174      7173      7175      7173      7176      7176      7177
      7176      7178      7178      7179      7178      7180      7180      7181
      7180      7182      7180      7183      7183      7184      7183      7185
      7185      7186      7185      7187      7187      7188      7187      7189
      7187      7190      7190      7191      7190      7192      7192      7193
      7192      7194      7194      7195      7194      7196      7194      7197
      7197      7198      7197      7199      7199      7200      7199      7201
      7201      7202      7201      7203      7201      7204      7204      7205
      7204      7206      7204      7207      7207      7208      7207      7209
      7207      7210      7210      7211      7210      7212      7210      7213
      7213      7214      7213      7215      7213      7216      7164      7165
      7165      7167      7165      7166      7167      7168      7167      7169
      7167      7217      7217      7218      7217      7219      7217      7220
      7220      7221      7220      7222      7220      7223      7223      7224
      7223      7225      7223      7226      7226      7227      7226      7228
      7226      7229      7229      7230      7229      7231      7229      7232
      7232      7233      7232      7234      7232      7235      7235      7236
      7235      7237      7235      7238      7238      7239      7238      7240
      7238      7241      7241      7242      7241      7243      7241      7244
      7244      7245      7244      7246      7244      7247      7247      7248
      7247      7249      7247      7250      7250      7251      7250      7252
      7250      7253      7253      7254      7253      7255      7253      7256
      7256      7257      7256      7258      7256      7259      7259      7260
      7259      7261      7259      7262      7262      7263      7262      7264
      7262      7265      7266      7270      7266      7274      7266      7278
      7270      7271      7270      7272      7270      7273      7274      7275
      7274      7276      7274      7277      7278      7279      7278      7280
      7278      7281      7266      7267      7267      7268      7267      7269
      7267      7282      7282      7283      7282      7284      7282      7288
      7289      7290      7288      7285      7285      7289      7285      7286
      7285      7287      7290      7291      7290      7292      7290      7293
      7293      7294      7293      7301      7293      7295      7301      7302
      7301      7303      7301      7304      7295      7296      7296      7298
      7296      7297      7298      7299      7298      7300      7298      7310
      7310      7311      7310      7312      7310      7313      7313      7314
      7313      7315      7313      7316      7316      7317      7316      7318
      7316      7319      7319      7320      7319      7321      7319      7322
      7322      7323      7322      7324      7322      7325      7325      7326
      7325      7327      7325      7328      7328      7329      7328      7330
      7330      7331      7330      7332      7332      7333      7332      7334
      7332      7335      7335      7336      7335      7337      7335      7338
      7338      7339      7338      7340      7338      7341      7341      7342
      7341      7343      7341      7344      7344      7345      7344      7346
      7344      7347      7347      7348      7347      7349      7347      7350
      7350      7351      7350      7352      7350      7353      7353      7354
      7353      7355      7353      7356      7304      7305      7305      7307
      7305      7306      7307      7308      7307      7309      7307      7357
      7357      7358      7357      7359      7357      7360      7360      7361
      7360      7362      7360      7363      7363      7364      7363      7365
      7363      7366      7366      7367      7366      7368      7366      7369
      7369      7370      7369      7371      7369      7372      7372      7373
      7372      7374      7372      7375      7375      7376      7375      7377
      7375      7378      7378      7379      7378      7380      7378      7381
      7381      7382      7381      7383      7381      7384      7384      7385
      7384      7386      7384      7387      7387      7388      7387      7389
      7387      7390      7390      7391      7390      7392      7390      7393
      7393      7394      7393      7395      7393      7396      7396      7397
      7396      7398      7396      7399      7400      7401      7400      7402
      7400      7403      7400      7404      7404      7405      7404      7406
      7404      7407      7407      7408      7407      7409      7407      7413
      7415      7414      7413      7410      7410      7414      7410      7411
      7410      7412      7415      7416      7415      7417      7415      7418
      7418      7419      7418      7426      7418      7420      7426      7427
      7426      7428      7426      7429      7420      7421      7421      7423
      7421      7422      7423      7424      7423      7425      7423      7435
      7435      7436      7435      7437      7435      7438      7438      7439
      7438      7440      7438      7441      7441      7442      7441      7443
      7441      7444      7444      7445      7444      7446      7444      7447
      7447      7448      7447      7449      7447      7450      7450      7451
      7450      7452      7450      7453      7453      7454      7453      7455
      7455      7456      7455      7457      7457      7458      7457      7459
      7457      7460      7460      7461      7460      7462      7460      7463
      7463      7464      7463      7465      7463      7466      7466      7467
      7466      7468      7466      7469      7469      7470      7469      7471
      7469      7472      7472      7473      7472      7474      7472      7475
      7475      7476      7475      7477      7475      7478      7478      7479
      7478      7480      7478      7481      7429      7430      7430      7432
      7430      7431      7432      7433      7432      7434      7432      7482
      7482      7483      7482      7484      7482      7485      7485      7486
      7485      7487      7485      7488      7488      7489      7488      7490
      7488      7491      7491      7492      7491      7493      7491      7494
      7494      7495      7494      7496      7494      7497      7497      7498
      7497      7499      7497      7500      7500      7501      7500      7502
      7500      7503      7503      7504      7503      7505      7503      7506
      7506      7507      7506      7508      7506      7509      7509      7510
      7509      7511      7509      7512      7512      7513      7512      7514
      7512      7515      7515      7516      7515      7517      7515      7518
      7518      7519      7518      7520      7518      7521      7521      7522
      7521      7523      7521      7524      7524      7525      7524      7526
      7524      7527      7527      7528      7527      7529      7527      7530
      7531      7533      7531      7532      7533      7534      7531      7577
      7577      7578      7577      7579      7577      7574      7574      7575
      7574      7576      7531      7535      7535      7536      7535      7537
      7535      7538      7538      7569      7569      7574      7569      7570
      7570      7571      7570      7572      7570      7573      7538      7539
      7539      7540      7539      7541      7541      7542      7541      7543
      7541      7544      7544      7545      7544      7567      7567      7568
      7567      7569      7544      7546      7546      7547      7546      7556
      7556      7561      7561      7562      7561      7563      7561      7564
      7564      7565      7564      7566      7564      7567      7556      7557
      7557      7558      7557      7559      7557      7560      7546      7548
      7548      7549      7548      7550      7548      7551      7551      7552
      7551      7553      7551      7554      7554      7555      7554      7556
      7554      7580      7580      7581      7580      7582      7582      7583
      7582      7584      7582      7585      7580      7586      7586      7587
      7586      7588      7586      7589      7589      7590      7589      7591
      7589      7592      7592      7593      7592      7594      7592      7595
      7595      7596      7595      7597      7597      7598      7597      7599
      7597      7600      7595      7601      7601      7602      7601      7603
      7601      7604      7605      7609      7605      7613      7605      7617
      7609      7610      7609      7611      7609      7612      7613      7614
      7613      7615      7613      7616      7617      7618      7617      7619
      7617      7620      7605      7606      7606      7607      7606      7608
      7606      7621      7621      7622      7621      7623      7621      7627
      7628      7629      7627      7624      7624      7628      7624      7625
      7624      7626      7629      7630      7629      7631      7629      7632
      7632      7633      7632      7640      7632      7634      7640      7641
      7640      7642      7640      7643      7634      7635      7635      7637
      7635      7636      7637      7638      7637      7639      7637      7649
      7649      7650      7649      7651      7649      7652      7652      7653
      7652      7654      7652      7655      7655      7656      7655      7657
      7657      7658      7657      7659      7659      7660      7659      7661
      7659      7662      7662      7663      7662      7664      7664      7665
      7664      7666      7666      7667      7666      7668      7666      7669
      7669      7670      7669      7671      7671      7672      7671      7673
      7673      7674      7673      7675      7673      7676      7676      7677
      7676      7678      7678      7679      7678      7680      7680      7681
      7680      7682      7680      7683      7683      7684      7683      7685
      7683      7686      7686      7687      7686      7688      7686      7689
      7689      7690      7689      7691      7689      7692      7692      7693
      7692      7694      7692      7695      7643      7644      7644      7646
      7644      7645      7646      7647      7646      7648      7646      7696
      7696      7697      7696      7698      7696      7699      7699      7700
      7699      7701      7699      7702      7702      7703      7702      7704
      7702      7705      7705      7706      7705      7707      7705      7708
      7708      7709      7708      7710      7708      7711      7711      7712
      7711      7713      7711      7714      7714      7715      7714      7716
      7714      7717      7717      7718      7717      7719      7717      7720
      7720      7721      7720      7722      7720      7723      7723      7724
      7723      7725      7723      7726      7726      7727      7726      7728
      7726      7729      7729      7730      7729      7731      7729      7732
      7732      7733      7732      7734      7732      7735      7735      7736
      7735      7737      7735      7738      7738      7739      7738      7740
      7738      7741      7741      7742      7741      7743      7741      7744
      7745      7746      7745      7747      7745      7748      7745      7749
      7749      7750      7749      7751      7749      7752      7752      7753
      7752      7754      7752      7758      7760      7759      7758      7755
      7755      7759      7755      7756      7755      7757      7760      7761
      7760      7762      7760      7763      7763      7764      7763      7771
      7763      7765      7771      7772      7771      7773      7771      7774
      7765      7766      7766      7768      7766      7767      7768      7769
      7768      7770      7768      7780      7780      7781      7780      7782
      7780      7783      7783      7784      7783      7785      7783      7786
      7786      7787      7786      7788      7788      7789      7788      7790
      7790      7791      7790      7792      7790      7793      7793      7794
      7793      7795      7795      7796      7795      7797      7797      7798
      7797      7799      7797      7800      7800      7801      7800      7802
      7802      7803      7802      7804      7804      7805      7804      7806
      7804      7807      7807      7808      7807      7809      7809      7810
      7809      7811      7811      7812      7811      7813      7811      7814
      7814      7815      7814      7816      7814      7817      7817      7818
      7817      7819      7817      7820      7820      7821      7820      7822
      7820      7823      7823      7824      7823      7825      7823      7826
      7774      7775      7775      7777      7775      7776      7777      7778
      7777      7779      7777      7827      7827      7828      7827      7829
      7827      7830      7830      7831      7830      7832      7830      7833
      7833      7834      7833      7835      7833      7836      7836      7837
      7836      7838      7836      7839      7839      7840      7839      7841
      7839      7842      7842      7843      7842      7844      7842      7845
      7845      7846      7845      7847      7845      7848      7848      7849
      7848      7850      7848      7851      7851      7852      7851      7853
      7851      7854      7854      7855      7854      7856      7854      7857
      7857      7858      7857      7859      7857      7860      7860      7861
      7860      7862      7860      7863      7863      7864      7863      7865
      7863      7866      7866      7867      7866      7868      7866      7869
      7869      7870      7869      7871      7869      7872      7872      7873
      7872      7874      7872      7875      7876      7877      7876      7878
      7876      7879      7876      7880      7880      7881      7880      7882
      7880      7883      7883      7884      7883      7885      7883      7889
      7891      7890      7889      7886      7886      7890      7886      7887
      7886      7888      7891      7892      7891      7893      7891      7894
      7894      7895      7894      7902      7894      7896      7902      7903
      7902      7904      7902      7905      7896      7897      7897      7899
      7897      7898      7899      7900      7899      7901      7899      7911
      7911      7912      7911      7913      7911      7914      7914      7915
      7914      7916      7914      7917      7917      7918      7917      7919
      7919      7920      7919      7921      7921      7922      7921      7923
      7921      7924      7924      7925      7924      7926      7926      7927
      7926      7928      7928      7929      7928      7930      7928      7931
      7931      7932      7931      7933      7933      7934      7933      7935
      7935      7936      7935      7937      7935      7938      7938      7939
      7938      7940      7940      7941      7940      7942      7942      7943
      7942      7944      7942      7945      7945      7946      7945      7947
      7945      7948      7948      7949      7948      7950      7948      7951
      7951      7952      7951      7953      7951      7954      7954      7955
      7954      7956      7954      7957      7905      7906      7906      7908
      7906      7907      7908      7909      7908      7910      7908      7958
      7958      7959      7958      7960      7958      7961      7961      7962
      7961      7963      7961      7964      7964      7965      7964      7966
      7964      7967      7967      7968      7967      7969      7967      7970
      7970      7971      7970      7972      7970      7973      7973      7974
      7973      7975      7973      7976      7976      7977      7976      7978
      7976      7979      7979      7980      7979      7981      7979      7982
      7982      7983      7982      7984      7982      7985      7985      7986
      7985      7987      7985      7988      7988      7989      7988      7990
      7988      7991      7991      7992      7991      7993      7991      7994
      7994      7995      7994      7996      7994      7997      7997      7998
      7997      7999      7997      8000      8000      8001      8000      8002
      8000      8003      8003      8004      8003      8005      8003      8006
      8007      8009      8007      8008      8009      8010      8007      8053
      8053      8054      8053      8055      8053      8050      8050      8051
      8050      8052      8007      8011      8011      8012      8011      8013
      8011      8014      8014      8045      8045      8050      8045      8046
      8046      8047      8046      8048      8046      8049      8014      8015
      8015      8016      8015      8017      8017      8018      8017      8019
      8017      8020      8020      8021      8020      8043      8043      8044
      8043      8045      8020      8022      8022      8023      8022      8032
      8032      8037      8037      8038      8037      8039      8037      8040
      8040      8041      8040      8042      8040      8043      8032      8033
      8033      8034      8033      8035      8033      8036      8022      8024
      8024      8025      8024      8026      8024      8027      8027      8028
      8027      8029      8027      8030      8030      8031      8030      8032
      8030      8056      8056      8057      8056      8058      8058      8059
      8058      8060      8058      8061      8056      8062      8062      8063
      8062      8064      8062      8065      8065      8066      8065      8067
      8065      8068      8068      8069      8068      8070      8068      8071
      8071      8072      8071      8073      8073      8074      8073      8075
      8073      8076      8071      8077      8077      8078      8077      8079
      8077      8080      8101      8102      8101      8097      8101      8081
      8101      8106      8081      8082      8081      8083      8083      8084
      8081      8085      8085      8086      8085      8087      8087      8088
      8085      8089      8089      8090      8089      8091      8091      8092
      8089      8093      8093      8094      8093      8097      8097      8098
      8097      8099      8099      8100      8093      8095      8095      8096
      8106      8103      8103      8107      8103      8104      8103      8105
      8107      8108      8108      8109      8108      8110      8108      8111
      8111      8112      8111      8119      8111      8113      8119      8120
      8119      8121      8119      8122      8113      8114      8114      8116
      8114      8115      8116      8117      8116      8118      8116      8128
      8128      8129      8128      8130      8128      8131      8131      8132
      8131      8133      8131      8134      8134      8135      8134      8136
      8136      8137      8136      8138      8138      8139      8138      8140
      8138      8141      8141      8142      8141      8143      8143      8144
      8143      8145      8145      8146      8145      8147      8145      8148
      8148      8149      8148      8150      8150      8151      8150      8152
      8152      8153      8152      8154      8152      8155      8155      8156
      8155      8157      8157      8158      8157      8159      8159      8160
      8159      8161      8159      8162      8162      8163      8162      8164
      8162      8165      8165      8166      8165      8167      8165      8168
      8168      8169      8168      8170      8168      8171      8171      8172
      8171      8173      8171      8174      8122      8123      8123      8125
      8123      8124      8125      8126      8125      8127      8125      8175
      8175      8176      8175      8177      8175      8178      8178      8179
      8178      8180      8178      8181      8181      8182      8181      8183
      8181      8184      8184      8185      8184      8186      8184      8187
      8187      8188      8187      8189      8187      8190      8190      8191
      8190      8192      8190      8193      8193      8194      8193      8195
      8193      8196      8196      8197      8196      8198      8196      8199
      8199      8200      8199      8201      8199      8202      8202      8203
      8202      8204      8202      8205      8205      8206      8205      8207
      8205      8208      8208      8209      8208      8210      8208      8211
      8211      8212      8211      8213      8211      8214      8214      8215
      8214      8216      8214      8217      8217      8218      8217      8219
      8217      8220      8220      8221      8220      8222      8220      8223
      8299      8300      8299      8301      8299      8302      8299      8296
      8296      8297      8296      8298      8296      8293      8293      8294
      8293      8295      8293      8290      8290      8291      8290      8292
      8290      8287      8287      8288      8287      8289      8287      8284
      8284      8285      8284      8286      8284      8281      8281      8282
      8281      8283      8281      8278      8278      8279      8278      8280
      8278      8275      8275      8276      8275      8277      8275      8272
      8272      8273      8272      8274      8272      8269      8269      8270
      8269      8271      8269      8266      8266      8267      8266      8268
      8266      8263      8263      8264      8263      8265      8263      8261
      8261      8262      8259      8260      8259      8255      8255      8256
      8255      8257      8257      8258      8255      8253      8253      8254
      8253      8248      8248      8249      8248      8250      8248      8246
      8246      8243      8247      8243      8244      8243      8245      8243
      8247      8240      8240      8241      8240      8242      8240      8237
      8237      8238      8237      8239      8237      8224      8224      8233
      8224      8229      8224      8225      8233      8234      8233      8235
      8233      8236      8229      8230      8229      8231      8229      8232
      8225      8226      8225      8227      8225      8228      8253      8251
      8251      8252      8251      8303      8303      8305      8305      8306
      8305      8307      8305      8308      8308      8309      8308      8310
      8308      8311      8311      8312      8311      8313      8311      8314
      8314      8315      8314      8316      8314      8317      8317      8318
      8317      8319      8317      8320      8320      8321      8320      8322
      8320      8323      8323      8324      8323      8325      8323      8326
      8326      8327      8328      8329      8328      8330      8330      8331
      8330      8332      8330      8333      8333      8334      8333      8335
      8333      8336      8336      8337      8336      8338      8336      8339
      8339      8340      8339      8341      8339      8342      8342      8343
      8342      8344      8342      8345      8345      8346      8345      8347
      8345      8348      8348      8349      8348      8350      8348      8351
      8351      8352      8351      8353      8351      8354      8259      8261
      8326      8328      8303      8304      8355      8356      8355      8357
      8355      8358      8355      8359      8359      8360      8359      8361
      8359      8362      8362      8363      8362      8364      8362      8368
      8370      8369      8368      8365      8365      8369      8365      8366
      8365      8367      8370      8371      8370      8372      8370      8373
      8373      8374      8373      8381      8373      8375      8381      8382
      8381      8383      8381      8384      8375      8376      8376      8378
      8376      8377      8378      8379      8378      8380      8378      8390
      8390      8391      8390      8392      8390      8393      8393      8394
      8393      8395      8393      8396      8396      8397      8396      8398
      8396      8399      8399      8400      8399      8401      8399      8402
      8402      8403      8402      8404      8402      8405      8405      8406
      8405      8407      8405      8408      8408      8409      8408      8410
      8410      8411      8410      8412      8412      8413      8412      8414
      8412      8415      8415      8416      8415      8417      8415      8418
      8418      8419      8418      8420      8418      8421      8421      8422
      8421      8423      8421      8424      8424      8425      8424      8426
      8424      8427      8427      8428      8427      8429      8427      8430
      8430      8431      8430      8432      8430      8433      8433      8434
      8433      8435      8433      8436      8384      8385      8385      8387
      8385      8386      8387      8388      8387      8389      8387      8437
      8437      8438      8437      8439      8437      8440      8440      8441
      8440      8442      8440      8443      8443      8444      8443      8445
      8443      8446      8446      8447      8446      8448      8446      8449
      8449      8450      8449      8451      8449      8452      8452      8453
      8452      8454      8452      8455      8455      8456      8455      8457
      8455      8458      8458      8459      8458      8460      8458      8461
      8461      8462      8461      8463      8461      8464      8464      8465
      8464      8466      8464      8467      8467      8468      8467      8469
      8467      8470      8470      8471      8470      8472      8470      8473
      8473      8474      8473      8475      8473      8476      8476      8477
      8476      8478      8476      8479      8479      8480      8479      8481
      8479      8482      8482      8483      8482      8484      8482      8485
      8486      8487      8486      8491      8486      8495      8487      8488
      8487      8489      8487      8490      8491      8492      8491      8493
      8491      8494      8495      8496      8495      8497      8495      8498
      8486      8499      8499      8500      8499      8501      8499      8502
      8502      8503      8502      8504      8502      8508      8509      8510
      8508      8505      8505      8509      8505      8506      8505      8507
      8510      8511      8510      8512      8510      8513      8513      8514
      8513      8521      8513      8515      8521      8522      8521      8523
      8521      8524      8515      8516      8516      8518      8516      8517
      8518      8519      8518      8520      8518      8530      8530      8531
      8530      8532      8530      8533      8533      8534      8533      8535
      8533      8536      8536      8537      8536      8538      8536      8539
      8539      8540      8539      8541      8539      8542      8542      8543
      8542      8544      8542      8545      8545      8546      8545      8547
      8545      8548      8548      8549      8548      8550      8550      8551
      8550      8552      8552      8553      8552      8554      8552      8555
      8555      8556      8555      8557      8557      8558      8557      8559
      8559      8560      8559      8561      8559      8562      8562      8563
      8562      8564      8562      8565      8565      8566      8565      8567
      8565      8568      8568      8569      8568      8570      8568      8571
      8571      8572      8571      8573      8571      8574      8524      8525
      8525      8527      8525      8526      8527      8528      8527      8529
      8527      8575      8575      8576      8575      8577      8575      8578
      8578      8579      8578      8580      8578      8581      8581      8582
      8581      8583      8581      8584      8584      8585      8584      8586
      8584      8587      8587      8588      8587      8589      8587      8590
      8590      8591      8590      8592      8590      8593      8593      8594
      8593      8595      8593      8596      8596      8597      8596      8598
      8596      8599      8599      8600      8599      8601      8599      8602
      8602      8603      8602      8604      8602      8605      8605      8606
      8605      8607      8605      8608      8608      8609      8608      8610
      8608      8611      8611      8612      8611      8613      8611      8614
      8614      8615      8614      8616      8614      8617      8617      8618
      8617      8619      8617      8620      8620      8621      8620      8622
      8620      8623      8624      8625      8624      8626      8624      8627
      8624      8628      8628      8629      8628      8630      8628      8631
      8631      8632      8631      8633      8631      8637      8639      8638
      8637      8634      8634      8638      8634      8635      8634      8636
      8639      8640      8639      8641      8639      8642      8642      8643
      8642      8650      8642      8644      8650      8651      8650      8652
      8650      8653      8644      8645      8645      8647      8645      8646
      8647      8648      8647      8649      8647      8659      8659      8660
      8659      8661      8659      8662      8662      8663      8662      8664
      8662      8665      8665      8666      8665      8667      8667      8668
      8667      8669      8669      8670      8669      8671      8669      8672
      8672      8673      8672      8674      8674      8675      8674      8676
      8676      8677      8676      8678      8676      8679      8679      8680
      8679      8681      8681      8682      8681      8683      8683      8684
      8683      8685      8683      8686      8686      8687      8686      8688
      8688      8689      8688      8690      8690      8691      8690      8692
      8690      8693      8693      8694      8693      8695      8693      8696
      8696      8697      8696      8698      8696      8699      8699      8700
      8699      8701      8699      8702      8702      8703      8702      8704
      8702      8705      8653      8654      8654      8656      8654      8655
      8656      8657      8656      8658      8656      8706      8706      8707
      8706      8708      8706      8709      8709      8710      8709      8711
      8709      8712      8712      8713      8712      8714      8712      8715
      8715      8716      8715      8717      8715      8718      8718      8719
      8718      8720      8718      8721      8721      8722      8721      8723
      8721      8724      8724      8725      8724      8726      8724      8727
      8727      8728      8727      8729      8727      8730      8730      8731
      8730      8732      8730      8733      8733      8734      8733      8735
      8733      8736      8736      8737      8736      8738      8736      8739
      8739      8740      8739      8741      8739      8742      8742      8743
      8742      8744      8742      8745      8745      8746      8745      8747
      8745      8748      8748      8749      8748      8750      8748      8751
      8751      8752      8751      8753      8751      8754      8755      8756
      8755      8757      8755      8758      8755      8759      8763      8761
      8761      8759      8761      8762      8759      8760      8759      8764
      8772      8771      8764      8765      8764      8766      8764      8770
      8770      8767      8767      8771      8767      8768      8767      8769
      8772      8773      8772      8774      8772      8775      8775      8776
      8775      8783      8775      8777      8783      8784      8783      8785
      8783      8786      8777      8778      8778      8780      8778      8779
      8780      8781      8780      8782      8780      8792      8792      8793
      8792      8794      8792      8795      8795      8796      8795      8797
      8795      8798      8798      8799      8798      8800      8800      8801
      8800      8802      8802      8803      8802      8804      8802      8805
      8805      8806      8805      8807      8807      8808      8807      8809
      8809      8810      8809      8811      8809      8812      8812      8813
      8812      8814      8814      8815      8814      8816      8816      8817
      8816      8818      8816      8819      8819      8820      8819      8821
      8821      8822      8821      8823      8823      8824      8823      8825
      8823      8826      8826      8827      8826      8828      8826      8829
      8829      8830      8829      8831      8829      8832      8832      8833
      8832      8834      8832      8835      8835      8836      8835      8837
      8835      8838      8786      8787      8787      8789      8787      8788
      8789      8790      8789      8791      8789      8839      8839      8840
      8839      8841      8839      8842      8842      8843      8842      8844
      8842      8845      8845      8846      8845      8847      8845      8848
      8848      8849      8848      8850      8848      8851      8851      8852
      8851      8853      8851      8854      8854      8855      8854      8856
      8854      8857      8857      8858      8857      8859      8857      8860
      8860      8861      8860      8862      8860      8863      8863      8864
      8863      8865      8863      8866      8866      8867      8866      8868
      8866      8869      8869      8870      8869      8871      8869      8872
      8872      8873      8872      8874      8872      8875      8875      8876
      8875      8877      8875      8878      8878      8879      8878      8880
      8878      8881      8881      8882      8881      8883      8881      8884
      8884      8885      8884      8886      8884      8887      8888      8889
      8888      8890      8888      8891      8888      8892      8896      8894
      8894      8892      8894      8895      8892      8893      8892      8897
      8905      8904      8897      8898      8897      8899      8897      8903
      8903      8900      8900      8904      8900      8901      8900      8902
      8905      8906      8905      8907      8905      8908      8908      8909
      8908      8916      8908      8910      8916      8917      8916      8918
      8916      8919      8910      8911      8911      8913      8911      8912
      8913      8914      8913      8915      8913      8925      8925      8926
      8925      8927      8925      8928      8928      8929      8928      8930
      8928      8931      8931      8932      8931      8933      8933      8934
      8933      8935      8935      8936      8935      8937      8935      8938
      8938      8939      8938      8940      8940      8941      8940      8942
      8942      8943      8942      8944      8942      8945      8945      8946
      8945      8947      8947      8948      8947      8949      8949      8950
      8949      8951      8949      8952      8952      8953      8952      8954
      8954      8955      8954      8956      8956      8957      8956      8958
      8956      8959      8959      8960      8959      8961      8959      8962
      8962      8963      8962      8964      8962      8965      8965      8966
      8965      8967      8965      8968      8968      8969      8968      8970
      8968      8971      8919      8920      8920      8922      8920      8921
      8922      8923      8922      8924      8922      8972      8972      8973
      8972      8974      8972      8975      8975      8976      8975      8977
      8975      8978      8978      8979      8978      8980      8978      8981
      8981      8982      8981      8983      8981      8984      8984      8985
      8984      8986      8984      8987      8987      8988      8987      8989
      8987      8990      8990      8991      8990      8992      8990      8993
      8993      8994      8993      8995      8993      8996      8996      8997
      8996      8998      8996      8999      8999      9000      8999      9001
      8999      9002      9002      9003      9002      9004      9002      9005
      9005      9006      9005      9007      9005      9008      9008      9009
      9008      9010      9008      9011      9011      9012      9011      9013
      9011      9014      9014      9015      9014      9016      9014      9017
      9017      9018      9017      9019      9017      9020      9021      9025
      9021      9029      9021      9033      9025      9026      9025      9027
      9025      9028      9029      9030      9029      9031      9029      9032
      9033      9034      9033      9035      9033      9036      9021      9022
      9022      9023      9022      9024      9022      9037      9037      9038
      9037      9039      9037      9043      9044      9045      9043      9040
      9040      9044      9040      9041      9040      9042      9045      9046
      9045      9047      9045      9048      9048      9049      9048      9056
      9048      9050      9056      9057      9056      9058      9056      9059
      9050      9051      9051      9053      9051      9052      9053      9054
      9053      9055      9053      9065      9065      9066      9065      9067
      9065      9068      9068      9069      9068      9070      9068      9071
      9071      9072      9071      9073      9073      9074      9073      9075
      9075      9076      9075      9077      9075      9078      9078      9079
      9078      9080      9080      9081      9080      9082      9082      9083
      9082      9084      9082      9085      9085      9086      9085      9087
      9087      9088      9087      9089      9089      9090      9089      9091
      9089      9092      9092      9093      9092      9094      9094      9095
      9094      9096      9096      9097      9096      9098      9096      9099
      9099      9100      9099      9101      9099      9102      9102      9103
      9102      9104      9102      9105      9105      9106      9105      9107
      9105      9108      9108      9109      9108      9110      9108      9111
      9059      9060      9060      9062      9060      9061      9062      9063
      9062      9064      9062      9112      9112      9113      9112      9114
      9112      9115      9115      9116      9115      9117      9115      9118
      9118      9119      9118      9120      9118      9121      9121      9122
      9121      9123      9121      9124      9124      9125      9124      9126
      9124      9127      9127      9128      9127      9129      9127      9130
      9130      9131      9130      9132      9130      9133      9133      9134
      9133      9135      9133      9136      9136      9137      9136      9138
      9136      9139      9139      9140      9139      9141      9139      9142
      9142      9143      9142      9144      9142      9145      9145      9146
      9145      9147      9145      9148      9148      9149      9148      9150
      9148      9151      9151      9152      9151      9153      9151      9154
      9154      9155      9154      9156      9154      9157      9157      9158
      9157      9159      9157      9160      9236      9237      9236      9238
      9236      9239      9236      9233      9233      9234      9233      9235
      9233      9230      9230      9231      9230      9232      9230      9227
      9227      9228      9227      9229      9227      9224      9224      9225
      9224      9226      9224      9221      9221      9222      9221      9223
      9221      9218      9218      9219      9218      9220      9218      9215
      9215      9216      9215      9217      9215      9212      9212      9213
      9212      9214      9212      9209      9209      9210      9209      9211
      9209      9206      9206      9207      9206      9208      9206      9203
      9203      9204      9203      9205      9203      9200      9200      9201
      9200      9202      9200      9198      9198      9199      9196      9197
      9196      9192      9192      9193      9192      9194      9194      9195
      9192      9190      9190      9191      9190      9185      9185      9186
      9185      9187      9185      9183      9183      9180      9184      9180
      9181      9180      9182      9180      9184      9177      9177      9178
      9177      9179      9177      9174      9174      9175      9174      9176
      9174      9161      9161      9170      9161      9166      9161      9162
      9170      9171      9170      9172      9170      9173      9166      9167
      9166      9168      9166      9169      9162      9163      9162      9164
      9162      9165      9190      9188      9188      9189      9188      9240
      9240      9242      9242      9243      9242      9244      9242      9245
      9245      9246      9245      9247      9245      9248      9248      9249
      9248      9250      9248      9251      9251      9252      9251      9253
      9251      9254      9254      9255      9254      9256      9254      9257
      9257      9258      9257      9259      9257      9260      9260      9261
      9260      9262      9260      9263      9263      9264      9265      9266
      9265      9267      9267      9268      9267      9269      9267      9270
      9270      9271      9270      9272      9270      9273      9273      9274
      9273      9275      9273      9276      9276      9277      9276      9278
      9276      9279      9279      9280      9279      9281      9279      9282
      9282      9283      9282      9284      9282      9285      9285      9286
      9285      9287      9285      9288      9288      9289      9288      9290
      9288      9291      9196      9198      9263      9265      9240      9241
      9292      9293      9292      9294      9292      9295      9292      9296
      9296      9297      9296      9298      9296      9299      9299      9300
      9299      9301      9299      9305      9307      9306      9305      9302
      9302      9306      9302      9303      9302      9304      9307      9308
      9307      9309      9307      9310      9310      9311      9310      9318
      9310      9312      9318      9319      9318      9320      9318      9321
      9312      9313      9313      9315      9313      9314      9315      9316
      9315      9317      9315      9327      9327      9328      9327      9329
      9327      9330      9330      9331      9330      9332      9330      9333
      9333      9334      9333      9335      9335      9336      9335      9337
      9337      9338      9337      9339      9337      9340      9340      9341
      9340      9342      9342      9343      9342      9344      9344      9345
      9344      9346      9344      9347      9347      9348      9347      9349
      9349      9350      9349      9351      9351      9352      9351      9353
      9351      9354      9354      9355      9354      9356      9356      9357
      9356      9358      9358      9359      9358      9360      9358      9361
      9361      9362      9361      9363      9361      9364      9364      9365
      9364      9366      9364      9367      9367      9368      9367      9369
      9367      9370      9370      9371      9370      9372      9370      9373
      9321      9322      9322      9324      9322      9323      9324      9325
      9324      9326      9324      9374      9374      9375      9374      9376
      9374      9377      9377      9378      9377      9379      9377      9380
      9380      9381      9380      9382      9380      9383      9383      9384
      9383      9385      9383      9386      9386      9387      9386      9388
      9386      9389      9389      9390      9389      9391      9389      9392
      9392      9393      9392      9394      9392      9395      9395      9396
      9395      9397      9395      9398      9398      9399      9398      9400
      9398      9401      9401      9402      9401      9403      9401      9404
      9404      9405      9404      9406      9404      9407      9407      9408
      9407      9409      9407      9410      9410      9411      9410      9412
      9410      9413      9413      9414      9413      9415      9413      9416
      9416      9417      9416      9418      9416      9419      9419      9420
      9419      9421      9419      9422      9498      9499      9498      9500
      9498      9501      9498      9495      9495      9496      9495      9497
      9495      9492      9492      9493      9492      9494      9492      9489
      9489      9490      9489      9491      9489      9486      9486      9487
      9486      9488      9486      9483      9483      9484      9483      9485
      9483      9480      9480      9481      9480      9482      9480      9477
      9477      9478      9477      9479      9477      9474      9474      9475
      9474      9476      9474      9471      9471      9472      9471      9473
      9471      9468      9468      9469      9468      9470      9468      9465
      9465      9466      9465      9467      9465      9462      9462      9463
      9462      9464      9462      9460      9460      9461      9458      9459
      9458      9454      9454      9455      9454      9456      9456      9457
      9454      9452      9452      9453      9452      9447      9447      9448
      9447      9449      9447      9445      9445      9442      9446      9442
      9443      9442      9444      9442      9446      9439      9439      9440
      9439      9441      9439      9436      9436      9437      9436      9438
      9436      9423      9423      9432      9423      9428      9423      9424
      9432      9433      9432      9434      9432      9435      9428      9429
      9428      9430      9428      9431      9424      9425      9424      9426
      9424      9427      9452      9450      9450      9451      9450      9502
      9502      9504      9504      9505      9504      9506      9504      9507
      9507      9508      9507      9509      9507      9510      9510      9511
      9510      9512      9510      9513      9513      9514      9513      9515
      9513      9516      9516      9517      9516      9518      9516      9519
      9519      9520      9519      9521      9519      9522      9522      9523
      9522      9524      9522      9525      9525      9526      9527      9528
      9527      9529      9529      9530      9529      9531      9529      9532
      9532      9533      9532      9534      9532      9535      9535      9536
      9535      9537      9535      9538      9538      9539      9538      9540
      9538      9541      9541      9542      9541      9543      9541      9544
      9544      9545      9544      9546      9544      9547      9547      9548
      9547      9549      9547      9550      9550      9551      9550      9552
      9550      9553      9458      9460      9525      9527      9502      9503
      9554      9556      9554      9555      9556      9557      9554      9600
      9600      9601      9600      9602      9600      9597      9597      9598
      9597      9599      9554      9558      9558      9559      9558      9560
      9558      9561      9561      9592      9592      9597      9592      9593
      9593      9594      9593      9595      9593      9596      9561      9562
      9562      9563      9562      9564      9564      9565      9564      9566
      9564      9567      9567      9568      9567      9590      9590      9591
      9590      9592      9567      9569      9569      9570      9569      9579
      9579      9584      9584      9585      9584      9586      9584      9587
      9587      9588      9587      9589      9587      9590      9579      9580
      9580      9581      9580      9582      9580      9583      9569      9571
      9571      9572      9571      9573      9571      9574      9574      9575
      9574      9576      9574      9577      9577      9578      9577      9579
      9577      9603      9603      9604      9603      9605      9605      9606
      9605      9607      9605      9608      9603      9609      9609      9610
      9609      9611      9609      9612      9612      9613      9612      9614
      9612      9615      9615      9616      9615      9617      9615      9618
      9618      9619      9618      9620      9620      9621      9620      9622
      9620      9623      9618      9624      9624      9625      9624      9626
      9624      9627      9628      9629      9628      9630      9628      9631
      9628      9632      9632      9633      9632      9634      9632      9635
      9635      9636      9635      9637      9635      9641      9643      9642
      9641      9638      9638      9642      9638      9639      9638      9640
      9643      9644      9643      9645      9643      9646      9646      9647
      9646      9654      9646      9648      9654      9655      9654      9656
      9654      9657      9648      9649      9649      9651      9649      9650
      9651      9652      9651      9653      9651      9663      9663      9664
      9663      9665      9663      9666      9666      9667      9666      9668
      9666      9669      9669      9670      9669      9671      9671      9672
      9671      9673      9673      9674      9673      9675      9673      9676
      9676      9677      9676      9678      9678      9679      9678      9680
      9680      9681      9680      9682      9680      9683      9683      9684
      9683      9685      9685      9686      9685      9687      9687      9688
      9687      9689      9687      9690      9690      9691      9690      9692
      9692      9693      9692      9694      9694      9695      9694      9696
      9694      9697      9697      9698      9697      9699      9697      9700
      9700      9701      9700      9702      9700      9703      9703      9704
      9703      9705      9703      9706      9706      9707      9706      9708
      9706      9709      9657      9658      9658      9660      9658      9659
      9660      9661      9660      9662      9660      9710      9710      9711
      9710      9712      9710      9713      9713      9714      9713      9715
      9713      9716      9716      9717      9716      9718      9716      9719
      9719      9720      9719      9721      9719      9722      9722      9723
      9722      9724      9722      9725      9725      9726      9725      9727
      9725      9728      9728      9729      9728      9730      9728      9731
      9731      9732      9731      9733      9731      9734      9734      9735
      9734      9736      9734      9737      9737      9738      9737      9739
      9737      9740      9740      9741      9740      9742      9740      9743
      9743      9744      9743      9745      9743      9746      9746      9747
      9746      9748      9746      9749      9749      9750      9749      9751
      9749      9752      9752      9753      9752      9754      9752      9755
      9755      9756      9755      9757      9755      9758      9834      9835
      9834      9836      9834      9837      9834      9831      9831      9832
      9831      9833      9831      9828      9828      9829      9828      9830
      9828      9825      9825      9826      9825      9827      9825      9822
      9822      9823      9822      9824      9822      9819      9819      9820
      9819      9821      9819      9816      9816      9817      9816      9818
      9816      9813      9813      9814      9813      9815      9813      9810
      9810      9811      9810      9812      9810      9807      9807      9808
      9807      9809      9807      9804      9804      9805      9804      9806
      9804      9801      9801      9802      9801      9803      9801      9798
      9798      9799      9798      9800      9798      9796      9796      9797
      9794      9795      9794      9790      9790      9791      9790      9792
      9792      9793      9790      9788      9788      9789      9788      9783
      9783      9784      9783      9785      9783      9781      9781      9778
      9782      9778      9779      9778      9780      9778      9782      9775
      9775      9776      9775      9777      9775      9772      9772      9773
      9772      9774      9772      9759      9759      9768      9759      9764
      9759      9760      9768      9769      9768      9770      9768      9771
      9764      9765      9764      9766      9764      9767      9760      9761
      9760      9762      9760      9763      9788      9786      9786      9787
      9786      9838      9838      9840      9840      9841      9840      9842
      9840      9843      9843      9844      9843      9845      9843      9846
      9846      9847      9846      9848      9846      9849      9849      9850
      9849      9851      9849      9852      9852      9853      9852      9854
      9852      9855      9855      9856      9855      9857      9855      9858
      9858      9859      9858      9860      9858      9861      9861      9862
      9863      9864      9863      9865      9865      9866      9865      9867
      9865      9868      9868      9869      9868      9870      9868      9871
      9871      9872      9871      9873      9871      9874      9874      9875
      9874      9876      9874      9877      9877      9878      9877      9879
      9877      9880      9880      9881      9880      9882      9880      9883
      9883      9884      9883      9885      9883      9886      9886      9887
      9886      9888      9886      9889      9794      9796      9861      9863
      9838      9839      9890      9891      9890      9895      9890      9899
      9891      9892      9891      9893      9891      9894      9895      9896
      9895      9897      9895      9898      9899      9900      9899      9901
      9899      9902      9890      9903      9903      9904      9903      9905
      9903      9906      9906      9907      9906      9908      9906      9912
      9913      9914      9912      9909      9909      9913      9909      9910
      9909      9911      9914      9915      9914      9916      9914      9917
      9917      9918      9917      9925      9917      9919      9925      9926
      9925      9927      9925      9928      9919      9920      9920      9922
      9920      9921      9922      9923      9922      9924      9922      9934
      9934      9935      9934      9936      9934      9937      9937      9938
      9937      9939      9937      9940      9940      9941      9940      9942
      9940      9943      9943      9944      9943      9945      9943      9946
      9946      9947      9946      9948      9946      9949      9949      9950
      9949      9951      9949      9952      9952      9953      9952      9954
      9954      9955      9954      9956      9956      9957      9956      9958
      9956      9959      9959      9960      9959      9961      9961      9962
      9961      9963      9963      9964      9963      9965      9963      9966
      9966      9967      9966      9968      9966      9969      9969      9970
      9969      9971      9969      9972      9972      9973      9972      9974
      9972      9975      9975      9976      9975      9977      9975      9978
      9928      9929      9929      9931      9929      9930      9931      9932
      9931      9933      9931      9979      9979      9980      9979      9981
      9979      9982      9982      9983      9982      9984      9982      9985
      9985      9986      9985      9987      9985      9988      9988      9989
      9988      9990      9988      9991      9991      9992      9991      9993
      9991      9994      9994      9995      9994      9996      9994      9997
      9997      9998      9997      9999      9997     10000     10000     10001
     10000     10002     10000     10003     10003     10004     10003     10005
     10003     10006     10006     10007     10006     10008     10006     10009
     10009     10010     10009     10011     10009     10012     10012     10013
     10012     10014     10012     10015     10015     10016     10015     10017
     10015     10018     10018     10019     10018     10020     10018     10021
     10021     10022     10021     10023     10021     10024     10024     10025
     10024     10026     10024     10027     10103     10104     10103     10105
     10103     10106     10103     10100     10100     10101     10100     10102
     10100     10097     10097     10098     10097     10099     10097     10094
     10094     10095     10094     10096     10094     10091     10091     10092
     10091     10093     10091     10088     10088     10089     10088     10090
     10088     10085     10085     10086     10085     10087     10085     10082
     10082     10083     10082     10084     10082     10079     10079     10080
     10079     10081     10079     10076     10076     10077     10076     10078
     10076     10073     10073     10074     10073     10075     10073     10070
     10070     10071     10070     10072     10070     10067     10067     10068
     10067     10069     10067     10065     10065     10066     10063     10064
     10063     10059     10059     10060     10059     10061     10061     10062
     10059     10057     10057     10058     10057     10052     10052     10053
     10052     10054     10052     10050     10050     10047     10051     10047
     10048     10047     10049     10047     10051     10044     10044     10045
     10044     10046     10044     10041     10041     10042     10041     10043
     10041     10028     10028     10037     10028     10033     10028     10029
     10037     10038     10037     10039     10037     10040     10033     10034
     10033     10035     10033     10036     10029     10030     10029     10031
     10029     10032     10057     10055     10055     10056     10055     10107
     10107     10109     10109     10110     10109     10111     10109     10112
     10112     10113     10112     10114     10112     10115     10115     10116
     10115     10117     10115     10118     10118     10119     10118     10120
     10118     10121     10121     10122     10121     10123     10121     10124
     10124     10125     10124     10126     10124     10127     10127     10128
     10127     10129     10127     10130     10130     10131     10132     10133
     10132     10134     10134     10135     10134     10136     10134     10137
     10137     10138     10137     10139     10137     10140     10140     10141
     10140     10142     10140     10143     10143     10144     10143     10145
     10143     10146     10146     10147     10146     10148     10146     10149
     10149     10150     10149     10151     10149     10152     10152     10153
     10152     10154     10152     10155     10155     10156     10155     10157
     10155     10158     10063     10065     10130     10132     10107     10108
     10159     10161     10159     10160     10161     10162     10159     10205
     10205     10206     10205     10207     10205     10202     10202     10203
     10202     10204     10159     10163     10163     10164     10163     10165
     10163     10166     10166     10197     10197     10202     10197     10198
     10198     10199     10198     10200     10198     10201     10166     10167
     10167     10168     10167     10169     10169     10170     10169     10171
     10169     10172     10172     10173     10172     10195     10195     10196
     10195     10197     10172     10174     10174     10175     10174     10184
     10184     10189     10189     10190     10189     10191     10189     10192
     10192     10193     10192     10194     10192     10195     10184     10185
     10185     10186     10185     10187     10185     10188     10174     10176
     10176     10177     10176     10178     10176     10179     10179     10180
     10179     10181     10179     10182     10182     10183     10182     10184
     10182     10208     10208     10209     10208     10210     10210     10211
     10210     10212     10210     10213     10208     10214     10214     10215
     10214     10216     10214     10217     10217     10218     10217     10219
     10217     10220     10220     10221     10220     10222     10220     10223
     10223     10224     10223     10225     10225     10226     10225     10227
     10225     10228     10223     10229     10229     10230     10229     10231
     10229     10232     10233     10234     10233     10235     10233     10236
     10233     10237     10237     10238     10237     10239     10237     10240
     10240     10241     10240     10242     10240     10246     10248     10247
     10246     10243     10243     10247     10243     10244     10243     10245
     10248     10249     10248     10250     10248     10251     10251     10252
     10251     10259     10251     10253     10259     10260     10259     10261
     10259     10262     10253     10254     10254     10256     10254     10255
     10256     10257     10256     10258     10256     10268     10268     10269
     10268     10270     10268     10271     10271     10272     10271     10273
     10271     10274     10274     10275     10274     10276     10276     10277
     10276     10278     10278     10279     10278     10280     10278     10281
     10281     10282     10281     10283     10283     10284     10283     10285
     10285     10286     10285     10287     10285     10288     10288     10289
     10288     10290     10290     10291     10290     10292     10292     10293
     10292     10294     10292     10295     10295     10296     10295     10297
     10297     10298     10297     10299     10299     10300     10299     10301
     10299     10302     10302     10303     10302     10304     10302     10305
     10305     10306     10305     10307     10305     10308     10308     10309
     10308     10310     10308     10311     10311     10312     10311     10313
     10311     10314     10262     10263     10263     10265     10263     10264
     10265     10266     10265     10267     10265     10315     10315     10316
     10315     10317     10315     10318     10318     10319     10318     10320
     10318     10321     10321     10322     10321     10323     10321     10324
     10324     10325     10324     10326     10324     10327     10327     10328
     10327     10329     10327     10330     10330     10331     10330     10332
     10330     10333     10333     10334     10333     10335     10333     10336
     10336     10337     10336     10338     10336     10339     10339     10340
     10339     10341     10339     10342     10342     10343     10342     10344
     10342     10345     10345     10346     10345     10347     10345     10348
     10348     10349     10348     10350     10348     10351     10351     10352
     10351     10353     10351     10354     10354     10355     10354     10356
     10354     10357     10357     10358     10357     10359     10357     10360
     10360     10361     10360     10362     10360     10363     10439     10440
     10439     10441     10439     10442     10439     10436     10436     10437
     10436     10438     10436     10433     10433     10434     10433     10435
     10433     10430     10430     10431     10430     10432     10430     10427
     10427     10428     10427     10429     10427     10424     10424     10425
     10424     10426     10424     10421     10421     10422     10421     10423
     10421     10418     10418     10419     10418     10420     10418     10415
     10415     10416     10415     10417     10415     10412     10412     10413
     10412     10414     10412     10409     10409     10410     10409     10411
     10409     10406     10406     10407     10406     10408     10406     10403
     10403     10404     10403     10405     10403     10401     10401     10402
     10399     10400     10399     10395     10395     10396     10395     10397
     10397     10398     10395     10393     10393     10394     10393     10388
     10388     10389     10388     10390     10388     10386     10386     10383
     10387     10383     10384     10383     10385     10383     10387     10380
     10380     10381     10380     10382     10380     10377     10377     10378
     10377     10379     10377     10364     10364     10373     10364     10369
     10364     10365     10373     10374     10373     10375     10373     10376
     10369     10370     10369     10371     10369     10372     10365     10366
     10365     10367     10365     10368     10393     10391     10391     10392
     10391     10443     10443     10445     10445     10446     10445     10447
     10445     10448     10448     10449     10448     10450     10448     10451
     10451     10452     10451     10453     10451     10454     10454     10455
     10454     10456     10454     10457     10457     10458     10457     10459
     10457     10460     10460     10461     10460     10462     10460     10463
     10463     10464     10463     10465     10463     10466     10466     10467
     10468     10469     10468     10470     10470     10471     10470     10472
     10470     10473     10473     10474     10473     10475     10473     10476
     10476     10477     10476     10478     10476     10479     10479     10480
     10479     10481     10479     10482     10482     10483     10482     10484
     10482     10485     10485     10486     10485     10487     10485     10488
     10488     10489     10488     10490     10488     10491     10491     10492
     10491     10493     10491     10494     10399     10401     10466     10468
     10443     10444     10495     10496     10495     10497     10495     10498
     10495     10499     10503     10501     10501     10499     10501     10502
     10499     10500     10499     10504     10512     10511     10504     10505
     10504     10506     10504     10510     10510     10507     10507     10511
     10507     10508     10507     10509     10512     10513     10512     10514
     10512     10515     10515     10516     10515     10523     10515     10517
     10523     10524     10523     10525     10523     10526     10517     10518
     10518     10520     10518     10519     10520     10521     10520     10522
     10520     10532     10532     10533     10532     10534     10532     10535
     10535     10536     10535     10537     10535     10538     10538     10539
     10538     10540     10540     10541     10540     10542     10542     10543
     10542     10544     10542     10545     10545     10546     10545     10547
     10547     10548     10547     10549     10549     10550     10549     10551
     10549     10552     10552     10553     10552     10554     10554     10555
     10554     10556     10556     10557     10556     10558     10556     10559
     10559     10560     10559     10561     10561     10562     10561     10563
     10563     10564     10563     10565     10563     10566     10566     10567
     10566     10568     10566     10569     10569     10570     10569     10571
     10569     10572     10572     10573     10572     10574     10572     10575
     10575     10576     10575     10577     10575     10578     10526     10527
     10527     10529     10527     10528     10529     10530     10529     10531
     10529     10579     10579     10580     10579     10581     10579     10582
     10582     10583     10582     10584     10582     10585     10585     10586
     10585     10587     10585     10588     10588     10589     10588     10590
     10588     10591     10591     10592     10591     10593     10591     10594
     10594     10595     10594     10596     10594     10597     10597     10598
     10597     10599     10597     10600     10600     10601     10600     10602
     10600     10603     10603     10604     10603     10605     10603     10606
     10606     10607     10606     10608     10606     10609     10609     10610
     10609     10611     10609     10612     10612     10613     10612     10614
     10612     10615     10615     10616     10615     10617     10615     10618
     10618     10619     10618     10620     10618     10621     10621     10622
     10621     10623     10621     10624     10624     10625     10624     10626
     10624     10627     10628     10632     10628     10636     10628     10640
     10632     10633     10632     10634     10632     10635     10636     10637
     10636     10638     10636     10639     10640     10641     10640     10642
     10640     10643     10628     10629     10629     10630     10629     10631
     10629     10644     10644     10645     10644     10646     10644     10650
     10651     10652     10650     10647     10647     10651     10647     10648
     10647     10649     10652     10653     10652     10654     10652     10655
     10655     10656     10655     10663     10655     10657     10663     10664
     10663     10665     10663     10666     10657     10658     10658     10660
     10658     10659     10660     10661     10660     10662     10660     10672
     10672     10673     10672     10674     10672     10675     10675     10676
     10675     10677     10675     10678     10678     10679     10678     10680
     10680     10681     10680     10682     10682     10683     10682     10684
     10682     10685     10685     10686     10685     10687     10687     10688
     10687     10689     10689     10690     10689     10691     10689     10692
     10692     10693     10692     10694     10694     10695     10694     10696
     10696     10697     10696     10698     10696     10699     10699     10700
     10699     10701     10701     10702     10701     10703     10703     10704
     10703     10705     10703     10706     10706     10707     10706     10708
     10706     10709     10709     10710     10709     10711     10709     10712
     10712     10713     10712     10714     10712     10715     10715     10716
     10715     10717     10715     10718     10666     10667     10667     10669
     10667     10668     10669     10670     10669     10671     10669     10719
     10719     10720     10719     10721     10719     10722     10722     10723
     10722     10724     10722     10725     10725     10726     10725     10727
     10725     10728     10728     10729     10728     10730     10728     10731
     10731     10732     10731     10733     10731     10734     10734     10735
     10734     10736     10734     10737     10737     10738     10737     10739
     10737     10740     10740     10741     10740     10742     10740     10743
     10743     10744     10743     10745     10743     10746     10746     10747
     10746     10748     10746     10749     10749     10750     10749     10751
     10749     10752     10752     10753     10752     10754     10752     10755
     10755     10756     10755     10757     10755     10758     10758     10759
     10758     10760     10758     10761     10761     10762     10761     10763
     10761     10764     10764     10765     10764     10766     10764     10767
     10768     10769     10768     10770     10768     10771     10768     10772
     10772     10773     10772     10774     10772     10775     10775     10776
     10775     10777     10775     10781     10783     10782     10781     10778
     10778     10782     10778     10779     10778     10780     10783     10784
     10783     10785     10783     10786     10786     10787     10786     10794
     10786     10788     10794     10795     10794     10796     10794     10797
     10788     10789     10789     10791     10789     10790     10791     10792
     10791     10793     10791     10803     10803     10804     10803     10805
     10803     10806     10806     10807     10806     10808     10806     10809
     10809     10810     10809     10811     10811     10812     10811     10813
     10813     10814     10813     10815     10813     10816     10816     10817
     10816     10818     10818     10819     10818     10820     10820     10821
     10820     10822     10820     10823     10823     10824     10823     10825
     10825     10826     10825     10827     10827     10828     10827     10829
     10827     10830     10830     10831     10830     10832     10832     10833
     10832     10834     10834     10835     10834     10836     10834     10837
     10837     10838     10837     10839     10837     10840     10840     10841
     10840     10842     10840     10843     10843     10844     10843     10845
     10843     10846     10846     10847     10846     10848     10846     10849
     10797     10798     10798     10800     10798     10799     10800     10801
     10800     10802     10800     10850     10850     10851     10850     10852
     10850     10853     10853     10854     10853     10855     10853     10856
     10856     10857     10856     10858     10856     10859     10859     10860
     10859     10861     10859     10862     10862     10863     10862     10864
     10862     10865     10865     10866     10865     10867     10865     10868
     10868     10869     10868     10870     10868     10871     10871     10872
     10871     10873     10871     10874     10874     10875     10874     10876
     10874     10877     10877     10878     10877     10879     10877     10880
     10880     10881     10880     10882     10880     10883     10883     10884
     10883     10885     10883     10886     10886     10887     10886     10888
     10886     10889     10889     10890     10889     10891     10889     10892
     10892     10893     10892     10894     10892     10895     10895     10896
     10895     10897     10895     10898     10899     10900     10899     10901
     10899     10902     10899     10903     10903     10904     10903     10905
     10903     10906     10906     10907     10906     10908     10906     10912
     10914     10913     10912     10909     10909     10913     10909     10910
     10909     10911     10914     10915     10914     10916     10914     10917
     10917     10918     10917     10925     10917     10919     10925     10926
     10925     10927     10925     10928     10919     10920     10920     10922
     10920     10921     10922     10923     10922     10924     10922     10934
     10934     10935     10934     10936     10934     10937     10937     10938
     10937     10939     10937     10940     10940     10941     10940     10942
     10942     10943     10942     10944     10944     10945     10944     10946
     10944     10947     10947     10948     10947     10949     10949     10950
     10949     10951     10951     10952     10951     10953     10951     10954
     10954     10955     10954     10956     10956     10957     10956     10958
     10958     10959     10958     10960     10958     10961     10961     10962
     10961     10963     10963     10964     10963     10965     10965     10966
     10965     10967     10965     10968     10968     10969     10968     10970
     10968     10971     10971     10972     10971     10973     10971     10974
     10974     10975     10974     10976     10974     10977     10977     10978
     10977     10979     10977     10980     10928     10929     10929     10931
     10929     10930     10931     10932     10931     10933     10931     10981
     10981     10982     10981     10983     10981     10984     10984     10985
     10984     10986     10984     10987     10987     10988     10987     10989
     10987     10990     10990     10991     10990     10992     10990     10993
     10993     10994     10993     10995     10993     10996     10996     10997
     10996     10998     10996     10999     10999     11000     10999     11001
     10999     11002     11002     11003     11002     11004     11002     11005
     11005     11006     11005     11007     11005     11008     11008     11009
     11008     11010     11008     11011     11011     11012     11011     11013
     11011     11014     11014     11015     11014     11016     11014     11017
     11017     11018     11017     11019     11017     11020     11020     11021
     11020     11022     11020     11023     11023     11024     11023     11025
     11023     11026     11026     11027     11026     11028     11026     11029
     11030     11031     11030     11032     11030     11033     11030     11034
     11034     11035     11034     11036     11034     11037     11037     11038
     11037     11039     11037     11043     11045     11044     11043     11040
     11040     11044     11040     11041     11040     11042     11045     11046
     11045     11047     11045     11048     11048     11049     11048     11056
     11048     11050     11056     11057     11056     11058     11056     11059
     11050     11051     11051     11053     11051     11052     11053     11054
     11053     11055     11053     11065     11065     11066     11065     11067
     11065     11068     11068     11069     11068     11070     11068     11071
     11071     11072     11071     11073     11071     11074     11074     11075
     11074     11076     11074     11077     11077     11078     11077     11079
     11077     11080     11080     11081     11080     11082     11080     11083
     11083     11084     11083     11085     11085     11086     11085     11087
     11087     11088     11087     11089     11087     11090     11090     11091
     11090     11092     11090     11093     11093     11094     11093     11095
     11093     11096     11096     11097     11096     11098     11096     11099
     11099     11100     11099     11101     11099     11102     11102     11103
     11102     11104     11102     11105     11105     11106     11105     11107
     11105     11108     11108     11109     11108     11110     11108     11111
     11059     11060     11060     11062     11060     11061     11062     11063
     11062     11064     11062     11112     11112     11113     11112     11114
     11112     11115     11115     11116     11115     11117     11115     11118
     11118     11119     11118     11120     11118     11121     11121     11122
     11121     11123     11121     11124     11124     11125     11124     11126
     11124     11127     11127     11128     11127     11129     11127     11130
     11130     11131     11130     11132     11130     11133     11133     11134
     11133     11135     11133     11136     11136     11137     11136     11138
     11136     11139     11139     11140     11139     11141     11139     11142
     11142     11143     11142     11144     11142     11145     11145     11146
     11145     11147     11145     11148     11148     11149     11148     11150
     11148     11151     11151     11152     11151     11153     11151     11154
     11154     11155     11154     11156     11154     11157     11157     11158
     11157     11159     11157     11160     11161     11163     11161     11162
     11163     11164     11161     11207     11207     11208     11207     11209
     11207     11204     11204     11205     11204     11206     11161     11165
     11165     11166     11165     11167     11165     11168     11168     11199
     11199     11204     11199     11200     11200     11201     11200     11202
     11200     11203     11168     11169     11169     11170     11169     11171
     11171     11172     11171     11173     11171     11174     11174     11175
     11174     11197     11197     11198     11197     11199     11174     11176
     11176     11177     11176     11186     11186     11191     11191     11192
     11191     11193     11191     11194     11194     11195     11194     11196
     11194     11197     11186     11187     11187     11188     11187     11189
     11187     11190     11176     11178     11178     11179     11178     11180
     11178     11181     11181     11182     11181     11183     11181     11184
     11184     11185     11184     11186     11184     11210     11210     11211
     11210     11212     11212     11213     11212     11214     11212     11215
     11210     11216     11216     11217     11216     11218     11216     11219
     11219     11220     11219     11221     11219     11222     11222     11223
     11222     11224     11222     11225     11225     11226     11225     11227
     11227     11228     11227     11229     11227     11230     11225     11231
     11231     11232     11231     11233     11231     11234     11235     11237
     11235     11236     11237     11238     11235     11281     11281     11282
     11281     11283     11281     11278     11278     11279     11278     11280
     11235     11239     11239     11240     11239     11241     11239     11242
     11242     11273     11273     11278     11273     11274     11274     11275
     11274     11276     11274     11277     11242     11243     11243     11244
     11243     11245     11245     11246     11245     11247     11245     11248
     11248     11249     11248     11271     11271     11272     11271     11273
     11248     11250     11250     11251     11250     11260     11260     11265
     11265     11266     11265     11267     11265     11268     11268     11269
     11268     11270     11268     11271     11260     11261     11261     11262
     11261     11263     11261     11264     11250     11252     11252     11253
     11252     11254     11252     11255     11255     11256     11255     11257
     11255     11258     11258     11259     11258     11260     11258     11284
     11284     11285     11284     11286     11286     11287     11286     11288
     11286     11289     11284     11290     11290     11291     11290     11292
     11290     11293     11293     11294     11293     11295     11293     11296
     11296     11297     11296     11298     11296     11299     11299     11300
     11299     11301     11301     11302     11301     11303     11301     11304
     11299     11305     11305     11306     11305     11307     11305     11308
     11384     11385     11384     11386     11384     11387     11384     11381
     11381     11382     11381     11383     11381     11378     11378     11379
     11378     11380     11378     11375     11375     11376     11375     11377
     11375     11372     11372     11373     11372     11374     11372     11369
     11369     11370     11369     11371     11369     11366     11366     11367
     11366     11368     11366     11363     11363     11364     11363     11365
     11363     11360     11360     11361     11360     11362     11360     11357
     11357     11358     11357     11359     11357     11354     11354     11355
     11354     11356     11354     11351     11351     11352     11351     11353
     11351     11348     11348     11349     11348     11350     11348     11346
     11346     11347     11344     11345     11344     11340     11340     11341
     11340     11342     11342     11343     11340     11338     11338     11339
     11338     11333     11333     11334     11333     11335     11333     11331
     11331     11328     11332     11328     11329     11328     11330     11328
     11332     11325     11325     11326     11325     11327     11325     11322
     11322     11323     11322     11324     11322     11309     11309     11318
     11309     11314     11309     11310     11318     11319     11318     11320
     11318     11321     11314     11315     11314     11316     11314     11317
     11310     11311     11310     11312     11310     11313     11338     11336
     11336     11337     11336     11388     11388     11390     11390     11391
     11390     11392     11390     11393     11393     11394     11393     11395
     11393     11396     11396     11397     11396     11398     11396     11399
     11399     11400     11399     11401     11399     11402     11402     11403
     11402     11404     11402     11405     11405     11406     11405     11407
     11405     11408     11408     11409     11408     11410     11408     11411
     11411     11412     11413     11414     11413     11415     11415     11416
     11415     11417     11415     11418     11418     11419     11418     11420
     11418     11421     11421     11422     11421     11423     11421     11424
     11424     11425     11424     11426     11424     11427     11427     11428
     11427     11429     11427     11430     11430     11431     11430     11432
     11430     11433     11433     11434     11433     11435     11433     11436
     11436     11437     11436     11438     11436     11439     11344     11346
     11411     11413     11388     11389     11440     11441     11440     11445
     11440     11449     11441     11442     11441     11443     11441     11444
     11445     11446     11445     11447     11445     11448     11449     11450
     11449     11451     11449     11452     11440     11453     11453     11454
     11453     11455     11453     11456     11456     11457     11456     11458
     11456     11462     11463     11464     11462     11459     11459     11463
     11459     11460     11459     11461     11464     11465     11464     11466
     11464     11467     11467     11468     11467     11475     11467     11469
     11475     11476     11475     11477     11475     11478     11469     11470
     11470     11472     11470     11471     11472     11473     11472     11474
     11472     11484     11484     11485     11484     11486     11484     11487
     11487     11488     11487     11489     11487     11490     11490     11491
     11490     11492     11490     11493     11493     11494     11493     11495
     11493     11496     11496     11497     11496     11498     11496     11499
     11499     11500     11499     11501     11499     11502     11502     11503
     11502     11504     11504     11505     11504     11506     11506     11507
     11506     11508     11506     11509     11509     11510     11509     11511
     11511     11512     11511     11513     11513     11514     11513     11515
     11513     11516     11516     11517     11516     11518     11516     11519
     11519     11520     11519     11521     11519     11522     11522     11523
     11522     11524     11522     11525     11525     11526     11525     11527
     11525     11528     11478     11479     11479     11481     11479     11480
     11481     11482     11481     11483     11481     11529     11529     11530
     11529     11531     11529     11532     11532     11533     11532     11534
     11532     11535     11535     11536     11535     11537     11535     11538
     11538     11539     11538     11540     11538     11541     11541     11542
     11541     11543     11541     11544     11544     11545     11544     11546
     11544     11547     11547     11548     11547     11549     11547     11550
     11550     11551     11550     11552     11550     11553     11553     11554
     11553     11555     11553     11556     11556     11557     11556     11558
     11556     11559     11559     11560     11559     11561     11559     11562
     11562     11563     11562     11564     11562     11565     11565     11566
     11565     11567     11565     11568     11568     11569     11568     11570
     11568     11571     11571     11572     11571     11573     11571     11574
     11574     11575     11574     11576     11574     11577     11578     11579
     11578     11580     11578     11581     11578     11582     11586     11584
     11584     11582     11584     11585     11582     11583     11582     11587
     11595     11594     11587     11588     11587     11589     11587     11593
     11593     11590     11590     11594     11590     11591     11590     11592
     11595     11596     11595     11597     11595     11598     11598     11599
     11598     11606     11598     11600     11606     11607     11606     11608
     11606     11609     11600     11601     11601     11603     11601     11602
     11603     11604     11603     11605     11603     11615     11615     11616
     11615     11617     11615     11618     11618     11619     11618     11620
     11618     11621     11621     11622     11621     11623     11623     11624
     11623     11625     11625     11626     11625     11627     11625     11628
     11628     11629     11628     11630     11630     11631     11630     11632
     11632     11633     11632     11634     11632     11635     11635     11636
     11635     11637     11637     11638     11637     11639     11639     11640
     11639     11641     11639     11642     11642     11643     11642     11644
     11644     11645     11644     11646     11646     11647     11646     11648
     11646     11649     11649     11650     11649     11651     11649     11652
     11652     11653     11652     11654     11652     11655     11655     11656
     11655     11657     11655     11658     11658     11659     11658     11660
     11658     11661     11609     11610     11610     11612     11610     11611
     11612     11613     11612     11614     11612     11662     11662     11663
     11662     11664     11662     11665     11665     11666     11665     11667
     11665     11668     11668     11669     11668     11670     11668     11671
     11671     11672     11671     11673     11671     11674     11674     11675
     11674     11676     11674     11677     11677     11678     11677     11679
     11677     11680     11680     11681     11680     11682     11680     11683
     11683     11684     11683     11685     11683     11686     11686     11687
     11686     11688     11686     11689     11689     11690     11689     11691
     11689     11692     11692     11693     11692     11694     11692     11695
     11695     11696     11695     11697     11695     11698     11698     11699
     11698     11700     11698     11701     11701     11702     11701     11703
     11701     11704     11704     11705     11704     11706     11704     11707
     11707     11708     11707     11709     11707     11710     11786     11787
     11786     11788     11786     11789     11786     11783     11783     11784
     11783     11785     11783     11780     11780     11781     11780     11782
     11780     11777     11777     11778     11777     11779     11777     11774
     11774     11775     11774     11776     11774     11771     11771     11772
     11771     11773     11771     11768     11768     11769     11768     11770
     11768     11765     11765     11766     11765     11767     11765     11762
     11762     11763     11762     11764     11762     11759     11759     11760
     11759     11761     11759     11756     11756     11757     11756     11758
     11756     11753     11753     11754     11753     11755     11753     11750
     11750     11751     11750     11752     11750     11748     11748     11749
     11746     11747     11746     11742     11742     11743     11742     11744
     11744     11745     11742     11740     11740     11741     11740     11735
     11735     11736     11735     11737     11735     11733     11733     11730
     11734     11730     11731     11730     11732     11730     11734     11727
     11727     11728     11727     11729     11727     11724     11724     11725
     11724     11726     11724     11711     11711     11720     11711     11716
     11711     11712     11720     11721     11720     11722     11720     11723
     11716     11717     11716     11718     11716     11719     11712     11713
     11712     11714     11712     11715     11740     11738     11738     11739
     11738     11790     11790     11792     11792     11793     11792     11794
     11792     11795     11795     11796     11795     11797     11795     11798
     11798     11799     11798     11800     11798     11801     11801     11802
     11801     11803     11801     11804     11804     11805     11804     11806
     11804     11807     11807     11808     11807     11809     11807     11810
     11810     11811     11810     11812     11810     11813     11813     11814
     11815     11816     11815     11817     11817     11818     11817     11819
     11817     11820     11820     11821     11820     11822     11820     11823
     11823     11824     11823     11825     11823     11826     11826     11827
     11826     11828     11826     11829     11829     11830     11829     11831
     11829     11832     11832     11833     11832     11834     11832     11835
     11835     11836     11835     11837     11835     11838     11838     11839
     11838     11840     11838     11841     11746     11748     11813     11815
     11790     11791     11842     11843     11842     11844     11842     11845
     11842     11846     11846     11847     11846     11848     11846     11849
     11849     11850     11849     11851     11849     11855     11857     11856
     11855     11852     11852     11856     11852     11853     11852     11854
     11857     11858     11857     11859     11857     11860     11860     11861
     11860     11868     11860     11862     11868     11869     11868     11870
     11868     11871     11862     11863     11863     11865     11863     11864
     11865     11866     11865     11867     11865     11877     11877     11878
     11877     11879     11877     11880     11880     11881     11880     11882
     11880     11883     11883     11884     11883     11885     11885     11886
     11885     11887     11887     11888     11887     11889     11887     11890
     11890     11891     11890     11892     11892     11893     11892     11894
     11894     11895     11894     11896     11894     11897     11897     11898
     11897     11899     11899     11900     11899     11901     11901     11902
     11901     11903     11901     11904     11904     11905     11904     11906
     11906     11907     11906     11908     11908     11909     11908     11910
     11908     11911     11911     11912     11911     11913     11911     11914
     11914     11915     11914     11916     11914     11917     11917     11918
     11917     11919     11917     11920     11920     11921     11920     11922
     11920     11923     11871     11872     11872     11874     11872     11873
     11874     11875     11874     11876     11874     11924     11924     11925
     11924     11926     11924     11927     11927     11928     11927     11929
     11927     11930     11930     11931     11930     11932     11930     11933
     11933     11934     11933     11935     11933     11936     11936     11937
     11936     11938     11936     11939     11939     11940     11939     11941
     11939     11942     11942     11943     11942     11944     11942     11945
     11945     11946     11945     11947     11945     11948     11948     11949
     11948     11950     11948     11951     11951     11952     11951     11953
     11951     11954     11954     11955     11954     11956     11954     11957
     11957     11958     11957     11959     11957     11960     11960     11961
     11960     11962     11960     11963     11963     11964     11963     11965
     11963     11966     11966     11967     11966     11968     11966     11969
     11969     11970     11969     11971     11969     11972     12048     12049
     12048     12050     12048     12051     12048     12045     12045     12046
     12045     12047     12045     12042     12042     12043     12042     12044
     12042     12039     12039     12040     12039     12041     12039     12036
     12036     12037     12036     12038     12036     12033     12033     12034
     12033     12035     12033     12030     12030     12031     12030     12032
     12030     12027     12027     12028     12027     12029     12027     12024
     12024     12025     12024     12026     12024     12021     12021     12022
     12021     12023     12021     12018     12018     12019     12018     12020
     12018     12015     12015     12016     12015     12017     12015     12012
     12012     12013     12012     12014     12012     12010     12010     12011
     12008     12009     12008     12004     12004     12005     12004     12006
     12006     12007     12004     12002     12002     12003     12002     11997
     11997     11998     11997     11999     11997     11995     11995     11992
     11996     11992     11993     11992     11994     11992     11996     11989
     11989     11990     11989     11991     11989     11986     11986     11987
     11986     11988     11986     11973     11973     11982     11973     11978
     11973     11974     11982     11983     11982     11984     11982     11985
     11978     11979     11978     11980     11978     11981     11974     11975
     11974     11976     11974     11977     12002     12000     12000     12001
     12000     12052     12052     12054     12054     12055     12054     12056
     12054     12057     12057     12058     12057     12059     12057     12060
     12060     12061     12060     12062     12060     12063     12063     12064
     12063     12065     12063     12066     12066     12067     12066     12068
     12066     12069     12069     12070     12069     12071     12069     12072
     12072     12073     12072     12074     12072     12075     12075     12076
     12077     12078     12077     12079     12079     12080     12079     12081
     12079     12082     12082     12083     12082     12084     12082     12085
     12085     12086     12085     12087     12085     12088     12088     12089
     12088     12090     12088     12091     12091     12092     12091     12093
     12091     12094     12094     12095     12094     12096     12094     12097
     12097     12098     12097     12099     12097     12100     12100     12101
     12100     12102     12100     12103     12008     12010     12075     12077
     12052     12053     12104     12106     12104     12105     12106     12107
     12104     12150     12150     12151     12150     12152     12150     12147
     12147     12148     12147     12149     12104     12108     12108     12109
     12108     12110     12108     12111     12111     12142     12142     12147
     12142     12143     12143     12144     12143     12145     12143     12146
     12111     12112     12112     12113     12112     12114     12114     12115
     12114     12116     12114     12117     12117     12118     12117     12140
     12140     12141     12140     12142     12117     12119     12119     12120
     12119     12129     12129     12134     12134     12135     12134     12136
     12134     12137     12137     12138     12137     12139     12137     12140
     12129     12130     12130     12131     12130     12132     12130     12133
     12119     12121     12121     12122     12121     12123     12121     12124
     12124     12125     12124     12126     12124     12127     12127     12128
     12127     12129     12127     12153     12153     12154     12153     12155
     12155     12156     12155     12157     12155     12158     12153     12159
     12159     12160     12159     12161     12159     12162     12162     12163
     12162     12164     12162     12165     12165     12166     12165     12167
     12165     12168     12168     12169     12168     12170     12170     12171
     12170     12172     12170     12173     12168     12174     12174     12175
     12174     12176     12174     12177     12178     12182     12178     12186
     12178     12190     12182     12183     12182     12184     12182     12185
     12186     12187     12186     12188     12186     12189     12190     12191
     12190     12192     12190     12193     12178     12179     12179     12180
     12179     12181     12179     12194     12194     12195     12194     12196
     12194     12200     12201     12202     12200     12197     12197     12201
     12197     12198     12197     12199     12202     12203     12202     12204
     12202     12205     12205     12206     12205     12213     12205     12207
     12213     12214     12213     12215     12213     12216     12207     12208
     12208     12210     12208     12209     12210     12211     12210     12212
     12210     12222     12222     12223     12222     12224     12222     12225
     12225     12226     12225     12227     12225     12228     12228     12229
     12228     12230     12228     12231     12231     12232     12231     12233
     12231     12234     12234     12235     12234     12236     12234     12237
     12237     12238     12237     12239     12237     12240     12240     12241
     12240     12242     12242     12243     12242     12244     12244     12245
     12244     12246     12244     12247     12247     12248     12247     12249
     12247     12250     12250     12251     12250     12252     12250     12253
     12253     12254     12253     12255     12253     12256     12256     12257
     12256     12258     12256     12259     12259     12260     12259     12261
     12259     12262     12262     12263     12262     12264     12262     12265
     12265     12266     12265     12267     12265     12268     12216     12217
     12217     12219     12217     12218     12219     12220     12219     12221
     12219     12269     12269     12270     12269     12271     12269     12272
     12272     12273     12272     12274     12272     12275     12275     12276
     12275     12277     12275     12278     12278     12279     12278     12280
     12278     12281     12281     12282     12281     12283     12281     12284
     12284     12285     12284     12286     12284     12287     12287     12288
     12287     12289     12287     12290     12290     12291     12290     12292
     12290     12293     12293     12294     12293     12295     12293     12296
     12296     12297     12296     12298     12296     12299     12299     12300
     12299     12301     12299     12302     12302     12303     12302     12304
     12302     12305     12305     12306     12305     12307     12305     12308
     12308     12309     12308     12310     12308     12311     12312     12316
     12312     12320     12312     12324     12316     12317     12316     12318
     12316     12319     12320     12321     12320     12322     12320     12323
     12324     12325     12324     12326     12324     12327     12312     12313
     12313     12314     12313     12315     12313     12328     12328     12329
     12328     12330     12328     12334     12335     12336     12334     12331
     12331     12335     12331     12332     12331     12333     12336     12337
     12336     12338     12336     12339     12339     12340     12339     12347
     12339     12341     12347     12348     12347     12349     12347     12350
     12341     12342     12342     12344     12342     12343     12344     12345
     12344     12346     12344     12356     12356     12357     12356     12358
     12356     12359     12359     12360     12359     12361     12359     12362
     12362     12363     12362     12364     12364     12365     12364     12366
     12366     12367     12366     12368     12366     12369     12369     12370
     12369     12371     12371     12372     12371     12373     12373     12374
     12373     12375     12373     12376     12376     12377     12376     12378
     12378     12379     12378     12380     12380     12381     12380     12382
     12380     12383     12383     12384     12383     12385     12385     12386
     12385     12387     12387     12388     12387     12389     12387     12390
     12390     12391     12390     12392     12390     12393     12393     12394
     12393     12395     12393     12396     12396     12397     12396     12398
     12396     12399     12399     12400     12399     12401     12399     12402
     12350     12351     12351     12353     12351     12352     12353     12354
     12353     12355     12353     12403     12403     12404     12403     12405
     12403     12406     12406     12407     12406     12408     12406     12409
     12409     12410     12409     12411     12409     12412     12412     12413
     12412     12414     12412     12415     12415     12416     12415     12417
     12415     12418     12418     12419     12418     12420     12418     12421
     12421     12422     12421     12423     12421     12424     12424     12425
     12424     12426     12424     12427     12427     12428     12427     12429
     12427     12430     12430     12431     12430     12432     12430     12433
     12433     12434     12433     12435     12433     12436     12436     12437
     12436     12438     12436     12439     12439     12440     12439     12441
     12439     12442     12442     12443     12442     12444     12442     12445
     12445     12446     12445     12447     12445     12448     12448     12449
     12448     12450     12448     12451     12527     12528     12527     12529
     12527     12530     12527     12524     12524     12525     12524     12526
     12524     12521     12521     12522     12521     12523     12521     12518
     12518     12519     12518     12520     12518     12515     12515     12516
     12515     12517     12515     12512     12512     12513     12512     12514
     12512     12509     12509     12510     12509     12511     12509     12506
     12506     12507     12506     12508     12506     12503     12503     12504
     12503     12505     12503     12500     12500     12501     12500     12502
     12500     12497     12497     12498     12497     12499     12497     12494
     12494     12495     12494     12496     12494     12491     12491     12492
     12491     12493     12491     12489     12489     12490     12487     12488
     12487     12483     12483     12484     12483     12485     12485     12486
     12483     12481     12481     12482     12481     12476     12476     12477
     12476     12478     12476     12474     12474     12471     12475     12471
     12472     12471     12473     12471     12475     12468     12468     12469
     12468     12470     12468     12465     12465     12466     12465     12467
     12465     12452     12452     12461     12452     12457     12452     12453
     12461     12462     12461     12463     12461     12464     12457     12458
     12457     12459     12457     12460     12453     12454     12453     12455
     12453     12456     12481     12479     12479     12480     12479     12531
     12531     12533     12533     12534     12533     12535     12533     12536
     12536     12537     12536     12538     12536     12539     12539     12540
     12539     12541     12539     12542     12542     12543     12542     12544
     12542     12545     12545     12546     12545     12547     12545     12548
     12548     12549     12548     12550     12548     12551     12551     12552
     12551     12553     12551     12554     12554     12555     12556     12557
     12556     12558     12558     12559     12558     12560     12558     12561
     12561     12562     12561     12563     12561     12564     12564     12565
     12564     12566     12564     12567     12567     12568     12567     12569
     12567     12570     12570     12571     12570     12572     12570     12573
     12573     12574     12573     12575     12573     12576     12576     12577
     12576     12578     12576     12579     12579     12580     12579     12581
     12579     12582     12487     12489     12554     12556     12531     12532
     12603     12604     12603     12599     12603     12583     12603     12608
     12583     12584     12583     12585     12585     12586     12583     12587
     12587     12588     12587     12589     12589     12590     12587     12591
     12591     12592     12591     12593     12593     12594     12591     12595
     12595     12596     12595     12599     12599     12600     12599     12601
     12601     12602     12595     12597     12597     12598     12608     12605
     12605     12609     12605     12606     12605     12607     12609     12610
     12610     12611     12610     12612     12610     12613     12613     12614
     12613     12621     12613     12615     12621     12622     12621     12623
     12621     12624     12615     12616     12616     12618     12616     12617
     12618     12619     12618     12620     12618     12630     12630     12631
     12630     12632     12630     12633     12633     12634     12633     12635
     12633     12636     12636     12637     12636     12638     12638     12639
     12638     12640     12640     12641     12640     12642     12640     12643
     12643     12644     12643     12645     12645     12646     12645     12647
     12647     12648     12647     12649     12647     12650     12650     12651
     12650     12652     12652     12653     12652     12654     12654     12655
     12654     12656     12654     12657     12657     12658     12657     12659
     12659     12660     12659     12661     12661     12662     12661     12663
     12661     12664     12664     12665     12664     12666     12664     12667
     12667     12668     12667     12669     12667     12670     12670     12671
     12670     12672     12670     12673     12673     12674     12673     12675
     12673     12676     12624     12625     12625     12627     12625     12626
     12627     12628     12627     12629     12627     12677     12677     12678
     12677     12679     12677     12680     12680     12681     12680     12682
     12680     12683     12683     12684     12683     12685     12683     12686
     12686     12687     12686     12688     12686     12689     12689     12690
     12689     12691     12689     12692     12692     12693     12692     12694
     12692     12695     12695     12696     12695     12697     12695     12698
     12698     12699     12698     12700     12698     12701     12701     12702
     12701     12703     12701     12704     12704     12705     12704     12706
     12704     12707     12707     12708     12707     12709     12707     12710
     12710     12711     12710     12712     12710     12713     12713     12714
     12713     12715     12713     12716     12716     12717     12716     12718
     12716     12719     12719     12720     12719     12721     12719     12722
     12722     12723     12722     12724     12722     12725     12801     12802
     12801     12803     12801     12804     12801     12798     12798     12799
     12798     12800     12798     12795     12795     12796     12795     12797
     12795     12792     12792     12793     12792     12794     12792     12789
     12789     12790     12789     12791     12789     12786     12786     12787
     12786     12788     12786     12783     12783     12784     12783     12785
     12783     12780     12780     12781     12780     12782     12780     12777
     12777     12778     12777     12779     12777     12774     12774     12775
     12774     12776     12774     12771     12771     12772     12771     12773
     12771     12768     12768     12769     12768     12770     12768     12765
     12765     12766     12765     12767     12765     12763     12763     12764
     12761     12762     12761     12757     12757     12758     12757     12759
     12759     12760     12757     12755     12755     12756     12755     12750
     12750     12751     12750     12752     12750     12748     12748     12745
     12749     12745     12746     12745     12747     12745     12749     12742
     12742     12743     12742     12744     12742     12739     12739     12740
     12739     12741     12739     12726     12726     12735     12726     12731
     12726     12727     12735     12736     12735     12737     12735     12738
     12731     12732     12731     12733     12731     12734     12727     12728
     12727     12729     12727     12730     12755     12753     12753     12754
     12753     12805     12805     12807     12807     12808     12807     12809
     12807     12810     12810     12811     12810     12812     12810     12813
     12813     12814     12813     12815     12813     12816     12816     12817
     12816     12818     12816     12819     12819     12820     12819     12821
     12819     12822     12822     12823     12822     12824     12822     12825
     12825     12826     12825     12827     12825     12828     12828     12829
     12830     12831     12830     12832     12832     12833     12832     12834
     12832     12835     12835     12836     12835     12837     12835     12838
     12838     12839     12838     12840     12838     12841     12841     12842
     12841     12843     12841     12844     12844     12845     12844     12846
     12844     12847     12847     12848     12847     12849     12847     12850
     12850     12851     12850     12852     12850     12853     12853     12854
     12853     12855     12853     12856     12761     12763     12828     12830
     12805     12806     12857     12861     12857     12865     12857     12869
     12861     12862     12861     12863     12861     12864     12865     12866
     12865     12867     12865     12868     12869     12870     12869     12871
     12869     12872     12857     12858     12858     12859     12858     12860
     12858     12873     12873     12874     12873     12875     12873     12879
     12880     12881     12879     12876     12876     12880     12876     12877
     12876     12878     12881     12882     12881     12883     12881     12884
     12884     12885     12884     12892     12884     12886     12892     12893
     12892     12894     12892     12895     12886     12887     12887     12889
     12887     12888     12889     12890     12889     12891     12889     12901
     12901     12902     12901     12903     12901     12904     12904     12905
     12904     12906     12904     12907     12907     12908     12907     12909
     12907     12910     12910     12911     12910     12912     12910     12913
     12913     12914     12913     12915     12913     12916     12916     12917
     12916     12918     12916     12919     12919     12920     12919     12921
     12921     12922     12921     12923     12923     12924     12923     12925
     12923     12926     12926     12927     12926     12928     12926     12929
     12929     12930     12929     12931     12929     12932     12932     12933
     12932     12934     12932     12935     12935     12936     12935     12937
     12935     12938     12938     12939     12938     12940     12938     12941
     12941     12942     12941     12943     12941     12944     12944     12945
     12944     12946     12944     12947     12895     12896     12896     12898
     12896     12897     12898     12899     12898     12900     12898     12948
     12948     12949     12948     12950     12948     12951     12951     12952
     12951     12953     12951     12954     12954     12955     12954     12956
     12954     12957     12957     12958     12957     12959     12957     12960
     12960     12961     12960     12962     12960     12963     12963     12964
     12963     12965     12963     12966     12966     12967     12966     12968
     12966     12969     12969     12970     12969     12971     12969     12972
     12972     12973     12972     12974     12972     12975     12975     12976
     12975     12977     12975     12978     12978     12979     12978     12980
     12978     12981     12981     12982     12981     12983     12981     12984
     12984     12985     12984     12986     12984     12987     12987     12988
     12987     12989     12987     12990     12991     12995     12991     12999
     12991     13003     12995     12996     12995     12997     12995     12998
     12999     13000     12999     13001     12999     13002     13003     13004
     13003     13005     13003     13006     12991     12992     12992     12993
     12992     12994     12992     13007     13007     13008     13007     13009
     13007     13013     13014     13015     13013     13010     13010     13014
     13010     13011     13010     13012     13015     13016     13015     13017
     13015     13018     13018     13019     13018     13026     13018     13020
     13026     13027     13026     13028     13026     13029     13020     13021
     13021     13023     13021     13022     13023     13024     13023     13025
     13023     13035     13035     13036     13035     13037     13035     13038
     13038     13039     13038     13040     13038     13041     13041     13042
     13041     13043     13043     13044     13043     13045     13045     13046
     13045     13047     13045     13048     13048     13049     13048     13050
     13050     13051     13050     13052     13052     13053     13052     13054
     13052     13055     13055     13056     13055     13057     13057     13058
     13057     13059     13059     13060     13059     13061     13059     13062
     13062     13063     13062     13064     13064     13065     13064     13066
     13066     13067     13066     13068     13066     13069     13069     13070
     13069     13071     13069     13072     13072     13073     13072     13074
     13072     13075     13075     13076     13075     13077     13075     13078
     13078     13079     13078     13080     13078     13081     13029     13030
     13030     13032     13030     13031     13032     13033     13032     13034
     13032     13082     13082     13083     13082     13084     13082     13085
     13085     13086     13085     13087     13085     13088     13088     13089
     13088     13090     13088     13091     13091     13092     13091     13093
     13091     13094     13094     13095     13094     13096     13094     13097
     13097     13098     13097     13099     13097     13100     13100     13101
     13100     13102     13100     13103     13103     13104     13103     13105
     13103     13106     13106     13107     13106     13108     13106     13109
     13109     13110     13109     13111     13109     13112     13112     13113
     13112     13114     13112     13115     13115     13116     13115     13117
     13115     13118     13118     13119     13118     13120     13118     13121
     13121     13122     13121     13123     13121     13124     13124     13125
     13124     13126     13124     13127     13127     13128     13127     13129
     13127     13130     13131     13133     13131     13132     13133     13134
     13131     13177     13177     13178     13177     13179     13177     13174
     13174     13175     13174     13176     13131     13135     13135     13136
     13135     13137     13135     13138     13138     13169     13169     13174
     13169     13170     13170     13171     13170     13172     13170     13173
     13138     13139     13139     13140     13139     13141     13141     13142
     13141     13143     13141     13144     13144     13145     13144     13167
     13167     13168     13167     13169     13144     13146     13146     13147
     13146     13156     13156     13161     13161     13162     13161     13163
     13161     13164     13164     13165     13164     13166     13164     13167
     13156     13157     13157     13158     13157     13159     13157     13160
     13146     13148     13148     13149     13148     13150     13148     13151
     13151     13152     13151     13153     13151     13154     13154     13155
     13154     13156     13154     13180     13180     13181     13180     13182
     13182     13183     13182     13184     13182     13185     13180     13186
     13186     13187     13186     13188     13186     13189     13189     13190
     13189     13191     13189     13192     13192     13193     13192     13194
     13192     13195     13195     13196     13195     13197     13197     13198
     13197     13199     13197     13200     13195     13201     13201     13202
     13201     13203     13201     13204     13205     13207     13205     13206
     13207     13208     13205     13251     13251     13252     13251     13253
     13251     13248     13248     13249     13248     13250     13205     13209
     13209     13210     13209     13211     13209     13212     13212     13243
     13243     13248     13243     13244     13244     13245     13244     13246
     13244     13247     13212     13213     13213     13214     13213     13215
     13215     13216     13215     13217     13215     13218     13218     13219
     13218     13241     13241     13242     13241     13243     13218     13220
     13220     13221     13220     13230     13230     13235     13235     13236
     13235     13237     13235     13238     13238     13239     13238     13240
     13238     13241     13230     13231     13231     13232     13231     13233
     13231     13234     13220     13222     13222     13223     13222     13224
     13222     13225     13225     13226     13225     13227     13225     13228
     13228     13229     13228     13230     13228     13254     13254     13255
     13254     13256     13256     13257     13256     13258     13256     13259
     13254     13260     13260     13261     13260     13262     13260     13263
     13263     13264     13263     13265     13263     13266     13266     13267
     13266     13268     13266     13269     13269     13270     13269     13271
     13271     13272     13271     13273     13271     13274     13269     13275
     13275     13276     13275     13277     13275     13278     13279     13281
     13279     13280     13281     13282     13279     13325     13325     13326
     13325     13327     13325     13322     13322     13323     13322     13324
     13279     13283     13283     13284     13283     13285     13283     13286
     13286     13317     13317     13322     13317     13318     13318     13319
     13318     13320     13318     13321     13286     13287     13287     13288
     13287     13289     13289     13290     13289     13291     13289     13292
     13292     13293     13292     13315     13315     13316     13315     13317
     13292     13294     13294     13295     13294     13304     13304     13309
     13309     13310     13309     13311     13309     13312     13312     13313
     13312     13314     13312     13315     13304     13305     13305     13306
     13305     13307     13305     13308     13294     13296     13296     13297
     13296     13298     13296     13299     13299     13300     13299     13301
     13299     13302     13302     13303     13302     13304     13302     13328
     13328     13329     13328     13330     13330     13331     13330     13332
     13330     13333     13328     13334     13334     13335     13334     13336
     13334     13337     13337     13338     13337     13339     13337     13340
     13340     13341     13340     13342     13340     13343     13343     13344
     13343     13345     13345     13346     13345     13347     13345     13348
     13343     13349     13349     13350     13349     13351     13349     13352
     13353     13357     13353     13361     13353     13365     13357     13358
     13357     13359     13357     13360     13361     13362     13361     13363
     13361     13364     13365     13366     13365     13367     13365     13368
     13353     13354     13354     13355     13354     13356     13354     13369
     13369     13370     13369     13371     13369     13375     13376     13377
     13375     13372     13372     13376     13372     13373     13372     13374
     13377     13378     13377     13379     13377     13380     13380     13381
     13380     13388     13380     13382     13388     13389     13388     13390
     13388     13391     13382     13383     13383     13385     13383     13384
     13385     13386     13385     13387     13385     13397     13397     13398
     13397     13399     13397     13400     13400     13401     13400     13402
     13400     13403     13403     13404     13403     13405     13405     13406
     13405     13407     13407     13408     13407     13409     13407     13410
     13410     13411     13410     13412     13412     13413     13412     13414
     13414     13415     13414     13416     13414     13417     13417     13418
     13417     13419     13419     13420     13419     13421     13421     13422
     13421     13423     13421     13424     13424     13425     13424     13426
     13426     13427     13426     13428     13428     13429     13428     13430
     13428     13431     13431     13432     13431     13433     13431     13434
     13434     13435     13434     13436     13434     13437     13437     13438
     13437     13439     13437     13440     13440     13441     13440     13442
     13440     13443     13391     13392     13392     13394     13392     13393
     13394     13395     13394     13396     13394     13444     13444     13445
     13444     13446     13444     13447     13447     13448     13447     13449
     13447     13450     13450     13451     13450     13452     13450     13453
     13453     13454     13453     13455     13453     13456     13456     13457
     13456     13458     13456     13459     13459     13460     13459     13461
     13459     13462     13462     13463     13462     13464     13462     13465
     13465     13466     13465     13467     13465     13468     13468     13469
     13468     13470     13468     13471     13471     13472     13471     13473
     13471     13474     13474     13475     13474     13476     13474     13477
     13477     13478     13477     13479     13477     13480     13480     13481
     13480     13482     13480     13483     13483     13484     13483     13485
     13483     13486     13486     13487     13486     13488     13486     13489
     13489     13490     13489     13491     13489     13492     13493     13495
     13493     13494     13495     13496     13493     13539     13539     13540
     13539     13541     13539     13536     13536     13537     13536     13538
     13493     13497     13497     13498     13497     13499     13497     13500
     13500     13531     13531     13536     13531     13532     13532     13533
     13532     13534     13532     13535     13500     13501     13501     13502
     13501     13503     13503     13504     13503     13505     13503     13506
     13506     13507     13506     13529     13529     13530     13529     13531
     13506     13508     13508     13509     13508     13518     13518     13523
     13523     13524     13523     13525     13523     13526     13526     13527
     13526     13528     13526     13529     13518     13519     13519     13520
     13519     13521     13519     13522     13508     13510     13510     13511
     13510     13512     13510     13513     13513     13514     13513     13515
     13513     13516     13516     13517     13516     13518     13516     13542
     13542     13543     13542     13544     13544     13545     13544     13546
     13544     13547     13542     13548     13548     13549     13548     13550
     13548     13551     13551     13552     13551     13553     13551     13554
     13554     13555     13554     13556     13554     13557     13557     13558
     13557     13559     13559     13560     13559     13561     13559     13562
     13557     13563     13563     13564     13563     13565     13563     13566
     13567     13569     13567     13568     13569     13570     13567     13613
     13613     13614     13613     13615     13613     13610     13610     13611
     13610     13612     13567     13571     13571     13572     13571     13573
     13571     13574     13574     13605     13605     13610     13605     13606
     13606     13607     13606     13608     13606     13609     13574     13575
     13575     13576     13575     13577     13577     13578     13577     13579
     13577     13580     13580     13581     13580     13603     13603     13604
     13603     13605     13580     13582     13582     13583     13582     13592
     13592     13597     13597     13598     13597     13599     13597     13600
     13600     13601     13600     13602     13600     13603     13592     13593
     13593     13594     13593     13595     13593     13596     13582     13584
     13584     13585     13584     13586     13584     13587     13587     13588
     13587     13589     13587     13590     13590     13591     13590     13592
     13590     13616     13616     13617     13616     13618     13618     13619
     13618     13620     13618     13621     13616     13622     13622     13623
     13622     13624     13622     13625     13625     13626     13625     13627
     13625     13628     13628     13629     13628     13630     13628     13631
     13631     13632     13631     13633     13633     13634     13633     13635
     13633     13636     13631     13637     13637     13638     13637     13639
     13637     13640     13641     13643     13641     13642     13643     13644
     13641     13687     13687     13688     13687     13689     13687     13684
     13684     13685     13684     13686     13641     13645     13645     13646
     13645     13647     13645     13648     13648     13679     13679     13684
     13679     13680     13680     13681     13680     13682     13680     13683
     13648     13649     13649     13650     13649     13651     13651     13652
     13651     13653     13651     13654     13654     13655     13654     13677
     13677     13678     13677     13679     13654     13656     13656     13657
     13656     13666     13666     13671     13671     13672     13671     13673
     13671     13674     13674     13675     13674     13676     13674     13677
     13666     13667     13667     13668     13667     13669     13667     13670
     13656     13658     13658     13659     13658     13660     13658     13661
     13661     13662     13661     13663     13661     13664     13664     13665
     13664     13666     13664     13690     13690     13691     13690     13692
     13692     13693     13692     13694     13692     13695     13690     13696
     13696     13697     13696     13698     13696     13699     13699     13700
     13699     13701     13699     13702     13702     13703     13702     13704
     13702     13705     13705     13706     13705     13707     13707     13708
     13707     13709     13707     13710     13705     13711     13711     13712
     13711     13713     13711     13714     13790     13791     13790     13792
     13790     13793     13790     13787     13787     13788     13787     13789
     13787     13784     13784     13785     13784     13786     13784     13781
     13781     13782     13781     13783     13781     13778     13778     13779
     13778     13780     13778     13775     13775     13776     13775     13777
     13775     13772     13772     13773     13772     13774     13772     13769
     13769     13770     13769     13771     13769     13766     13766     13767
     13766     13768     13766     13763     13763     13764     13763     13765
     13763     13760     13760     13761     13760     13762     13760     13757
     13757     13758     13757     13759     13757     13754     13754     13755
     13754     13756     13754     13752     13752     13753     13750     13751
     13750     13746     13746     13747     13746     13748     13748     13749
     13746     13744     13744     13745     13744     13739     13739     13740
     13739     13741     13739     13737     13737     13734     13738     13734
     13735     13734     13736     13734     13738     13731     13731     13732
     13731     13733     13731     13728     13728     13729     13728     13730
     13728     13715     13715     13724     13715     13720     13715     13716
     13724     13725     13724     13726     13724     13727     13720     13721
     13720     13722     13720     13723     13716     13717     13716     13718
     13716     13719     13744     13742     13742     13743     13742     13794
     13794     13796     13796     13797     13796     13798     13796     13799
     13799     13800     13799     13801     13799     13802     13802     13803
     13802     13804     13802     13805     13805     13806     13805     13807
     13805     13808     13808     13809     13808     13810     13808     13811
     13811     13812     13811     13813     13811     13814     13814     13815
     13814     13816     13814     13817     13817     13818     13819     13820
     13819     13821     13821     13822     13821     13823     13821     13824
     13824     13825     13824     13826     13824     13827     13827     13828
     13827     13829     13827     13830     13830     13831     13830     13832
     13830     13833     13833     13834     13833     13835     13833     13836
     13836     13837     13836     13838     13836     13839     13839     13840
     13839     13841     13839     13842     13842     13843     13842     13844
     13842     13845     13750     13752     13817     13819     13794     13795
     13846     13847     13846     13848     13846     13849     13846     13850
     13854     13852     13852     13850     13852     13853     13850     13851
     13850     13855     13863     13862     13855     13856     13855     13857
     13855     13861     13861     13858     13858     13862     13858     13859
     13858     13860     13863     13864     13863     13865     13863     13866
     13866     13867     13866     13874     13866     13868     13874     13875
     13874     13876     13874     13877     13868     13869     13869     13871
     13869     13870     13871     13872     13871     13873     13871     13883
     13883     13884     13883     13885     13883     13886     13886     13887
     13886     13888     13886     13889     13889     13890     13889     13891
     13891     13892     13891     13893     13893     13894     13893     13895
     13893     13896     13896     13897     13896     13898     13898     13899
     13898     13900     13900     13901     13900     13902     13900     13903
     13903     13904     13903     13905     13905     13906     13905     13907
     13907     13908     13907     13909     13907     13910     13910     13911
     13910     13912     13912     13913     13912     13914     13914     13915
     13914     13916     13914     13917     13917     13918     13917     13919
     13917     13920     13920     13921     13920     13922     13920     13923
     13923     13924     13923     13925     13923     13926     13926     13927
     13926     13928     13926     13929     13877     13878     13878     13880
     13878     13879     13880     13881     13880     13882     13880     13930
     13930     13931     13930     13932     13930     13933     13933     13934
     13933     13935     13933     13936     13936     13937     13936     13938
     13936     13939     13939     13940     13939     13941     13939     13942
     13942     13943     13942     13944     13942     13945     13945     13946
     13945     13947     13945     13948     13948     13949     13948     13950
     13948     13951     13951     13952     13951     13953     13951     13954
     13954     13955     13954     13956     13954     13957     13957     13958
     13957     13959     13957     13960     13960     13961     13960     13962
     13960     13963     13963     13964     13963     13965     13963     13966
     13966     13967     13966     13968     13966     13969     13969     13970
     13969     13971     13969     13972     13972     13973     13972     13974
     13972     13975     13975     13976     13975     13977     13975     13978
     13979     13980     13979     13981     13979     13982     13979     13983
     13983     13984     13983     13985     13983     13986     13986     13987
     13986     13988     13986     13992     13994     13993     13992     13989
     13989     13993     13989     13990     13989     13991     13994     13995
     13994     13996     13994     13997     13997     13998     13997     14005
     13997     13999     14005     14006     14005     14007     14005     14008
     13999     14000     14000     14002     14000     14001     14002     14003
     14002     14004     14002     14014     14014     14015     14014     14016
     14014     14017     14017     14018     14017     14019     14017     14020
     14020     14021     14020     14022     14022     14023     14022     14024
     14024     14025     14024     14026     14024     14027     14027     14028
     14027     14029     14029     14030     14029     14031     14031     14032
     14031     14033     14031     14034     14034     14035     14034     14036
     14036     14037     14036     14038     14038     14039     14038     14040
     14038     14041     14041     14042     14041     14043     14043     14044
     14043     14045     14045     14046     14045     14047     14045     14048
     14048     14049     14048     14050     14048     14051     14051     14052
     14051     14053     14051     14054     14054     14055     14054     14056
     14054     14057     14057     14058     14057     14059     14057     14060
     14008     14009     14009     14011     14009     14010     14011     14012
     14011     14013     14011     14061     14061     14062     14061     14063
     14061     14064     14064     14065     14064     14066     14064     14067
     14067     14068     14067     14069     14067     14070     14070     14071
     14070     14072     14070     14073     14073     14074     14073     14075
     14073     14076     14076     14077     14076     14078     14076     14079
     14079     14080     14079     14081     14079     14082     14082     14083
     14082     14084     14082     14085     14085     14086     14085     14087
     14085     14088     14088     14089     14088     14090     14088     14091
     14091     14092     14091     14093     14091     14094     14094     14095
     14094     14096     14094     14097     14097     14098     14097     14099
     14097     14100     14100     14101     14100     14102     14100     14103
     14103     14104     14103     14105     14103     14106     14106     14107
     14106     14108     14106     14109     14110     14112     14110     14111
     14112     14113     14110     14156     14156     14157     14156     14158
     14156     14153     14153     14154     14153     14155     14110     14114
     14114     14115     14114     14116     14114     14117     14117     14148
     14148     14153     14148     14149     14149     14150     14149     14151
     14149     14152     14117     14118     14118     14119     14118     14120
     14120     14121     14120     14122     14120     14123     14123     14124
     14123     14146     14146     14147     14146     14148     14123     14125
     14125     14126     14125     14135     14135     14140     14140     14141
     14140     14142     14140     14143     14143     14144     14143     14145
     14143     14146     14135     14136     14136     14137     14136     14138
     14136     14139     14125     14127     14127     14128     14127     14129
     14127     14130     14130     14131     14130     14132     14130     14133
     14133     14134     14133     14135     14133     14159     14159     14160
     14159     14161     14161     14162     14161     14163     14161     14164
     14159     14165     14165     14166     14165     14167     14165     14168
     14168     14169     14168     14170     14168     14171     14171     14172
     14171     14173     14171     14174     14174     14175     14174     14176
     14176     14177     14176     14178     14176     14179     14174     14180
     14180     14181     14180     14182     14180     14183     14184     14185
     14184     14186     14184     14187     14184     14188     14188     14189
     14188     14190     14188     14191     14191     14192     14191     14193
     14191     14197     14199     14198     14197     14194     14194     14198
     14194     14195     14194     14196     14199     14200     14199     14201
     14199     14202     14202     14203     14202     14210     14202     14204
     14210     14211     14210     14212     14210     14213     14204     14205
     14205     14207     14205     14206     14207     14208     14207     14209
     14207     14219     14219     14220     14219     14221     14219     14222
     14222     14223     14222     14224     14222     14225     14225     14226
     14225     14227     14227     14228     14227     14229     14229     14230
     14229     14231     14229     14232     14232     14233     14232     14234
     14234     14235     14234     14236     14236     14237     14236     14238
     14236     14239     14239     14240     14239     14241     14241     14242
     14241     14243     14243     14244     14243     14245     14243     14246
     14246     14247     14246     14248     14248     14249     14248     14250
     14250     14251     14250     14252     14250     14253     14253     14254
     14253     14255     14253     14256     14256     14257     14256     14258
     14256     14259     14259     14260     14259     14261     14259     14262
     14262     14263     14262     14264     14262     14265     14213     14214
     14214     14216     14214     14215     14216     14217     14216     14218
     14216     14266     14266     14267     14266     14268     14266     14269
     14269     14270     14269     14271     14269     14272     14272     14273
     14272     14274     14272     14275     14275     14276     14275     14277
     14275     14278     14278     14279     14278     14280     14278     14281
     14281     14282     14281     14283     14281     14284     14284     14285
     14284     14286     14284     14287     14287     14288     14287     14289
     14287     14290     14290     14291     14290     14292     14290     14293
     14293     14294     14293     14295     14293     14296     14296     14297
     14296     14298     14296     14299     14299     14300     14299     14301
     14299     14302     14302     14303     14302     14304     14302     14305
     14305     14306     14305     14307     14305     14308     14308     14309
     14308     14310     14308     14311     14311     14312     14311     14313
     14311     14314     14315     14317     14315     14316     14317     14318
     14315     14361     14361     14362     14361     14363     14361     14358
     14358     14359     14358     14360     14315     14319     14319     14320
     14319     14321     14319     14322     14322     14353     14353     14358
     14353     14354     14354     14355     14354     14356     14354     14357
     14322     14323     14323     14324     14323     14325     14325     14326
     14325     14327     14325     14328     14328     14329     14328     14351
     14351     14352     14351     14353     14328     14330     14330     14331
     14330     14340     14340     14345     14345     14346     14345     14347
     14345     14348     14348     14349     14348     14350     14348     14351
     14340     14341     14341     14342     14341     14343     14341     14344
     14330     14332     14332     14333     14332     14334     14332     14335
     14335     14336     14335     14337     14335     14338     14338     14339
     14338     14340     14338     14364     14364     14365     14364     14366
     14366     14367     14366     14368     14366     14369     14364     14370
     14370     14371     14370     14372     14370     14373     14373     14374
     14373     14375     14373     14376     14376     14377     14376     14378
     14376     14379     14379     14380     14379     14381     14381     14382
     14381     14383     14381     14384     14379     14385     14385     14386
     14385     14387     14385     14388     14389     14391     14389     14390
     14391     14392     14389     14435     14435     14436     14435     14437
     14435     14432     14432     14433     14432     14434     14389     14393
     14393     14394     14393     14395     14393     14396     14396     14427
     14427     14432     14427     14428     14428     14429     14428     14430
     14428     14431     14396     14397     14397     14398     14397     14399
     14399     14400     14399     14401     14399     14402     14402     14403
     14402     14425     14425     14426     14425     14427     14402     14404
     14404     14405     14404     14414     14414     14419     14419     14420
     14419     14421     14419     14422     14422     14423     14422     14424
     14422     14425     14414     14415     14415     14416     14415     14417
     14415     14418     14404     14406     14406     14407     14406     14408
     14406     14409     14409     14410     14409     14411     14409     14412
     14412     14413     14412     14414     14412     14438     14438     14439
     14438     14440     14440     14441     14440     14442     14440     14443
     14438     14444     14444     14445     14444     14446     14444     14447
     14447     14448     14447     14449     14447     14450     14450     14451
     14450     14452     14450     14453     14453     14454     14453     14455
     14455     14456     14455     14457     14455     14458     14453     14459
     14459     14460     14459     14461     14459     14462     14463     14465
     14463     14464     14465     14466     14463     14509     14509     14510
     14509     14511     14509     14506     14506     14507     14506     14508
     14463     14467     14467     14468     14467     14469     14467     14470
     14470     14501     14501     14506     14501     14502     14502     14503
     14502     14504     14502     14505     14470     14471     14471     14472
     14471     14473     14473     14474     14473     14475     14473     14476
     14476     14477     14476     14499     14499     14500     14499     14501
     14476     14478     14478     14479     14478     14488     14488     14493
     14493     14494     14493     14495     14493     14496     14496     14497
     14496     14498     14496     14499     14488     14489     14489     14490
     14489     14491     14489     14492     14478     14480     14480     14481
     14480     14482     14480     14483     14483     14484     14483     14485
     14483     14486     14486     14487     14486     14488     14486     14512
     14512     14513     14512     14514     14514     14515     14514     14516
     14514     14517     14512     14518     14518     14519     14518     14520
     14518     14521     14521     14522     14521     14523     14521     14524
     14524     14525     14524     14526     14524     14527     14527     14528
     14527     14529     14529     14530     14529     14531     14529     14532
     14527     14533     14533     14534     14533     14535     14533     14536
     14537     14541     14537     14545     14537     14549     14541     14542
     14541     14543     14541     14544     14545     14546     14545     14547
     14545     14548     14549     14550     14549     14551     14549     14552
     14537     14538     14538     14539     14538     14540     14538     14553
     14553     14554     14553     14555     14553     14559     14560     14561
     14559     14556     14556     14560     14556     14557     14556     14558
     14561     14562     14561     14563     14561     14564     14564     14565
     14564     14572     14564     14566     14572     14573     14572     14574
     14572     14575     14566     14567     14567     14569     14567     14568
     14569     14570     14569     14571     14569     14581     14581     14582
     14581     14583     14581     14584     14584     14585     14584     14586
     14584     14587     14587     14588     14587     14589     14587     14590
     14590     14591     14590     14592     14590     14593     14593     14594
     14593     14595     14593     14596     14596     14597     14596     14598
     14596     14599     14599     14600     14599     14601     14601     14602
     14601     14603     14603     14604     14603     14605     14603     14606
     14606     14607     14606     14608     14606     14609     14609     14610
     14609     14611     14609     14612     14612     14613     14612     14614
     14612     14615     14615     14616     14615     14617     14615     14618
     14618     14619     14618     14620     14618     14621     14621     14622
     14621     14623     14621     14624     14624     14625     14624     14626
     14624     14627     14575     14576     14576     14578     14576     14577
     14578     14579     14578     14580     14578     14628     14628     14629
     14628     14630     14628     14631     14631     14632     14631     14633
     14631     14634     14634     14635     14634     14636     14634     14637
     14637     14638     14637     14639     14637     14640     14640     14641
     14640     14642     14640     14643     14643     14644     14643     14645
     14643     14646     14646     14647     14646     14648     14646     14649
     14649     14650     14649     14651     14649     14652     14652     14653
     14652     14654     14652     14655     14655     14656     14655     14657
     14655     14658     14658     14659     14658     14660     14658     14661
     14661     14662     14661     14663     14661     14664     14664     14665
     14664     14666     14664     14667     14667     14668     14667     14669
     14667     14670     14671     14672     14671     14673     14671     14674
     14671     14675     14679     14677     14677     14675     14677     14678
     14675     14676     14675     14680     14688     14687     14680     14681
     14680     14682     14680     14686     14686     14683     14683     14687
     14683     14684     14683     14685     14688     14689     14688     14690
     14688     14691     14691     14692     14691     14699     14691     14693
     14699     14700     14699     14701     14699     14702     14693     14694
     14694     14696     14694     14695     14696     14697     14696     14698
     14696     14708     14708     14709     14708     14710     14708     14711
     14711     14712     14711     14713     14711     14714     14714     14715
     14714     14716     14716     14717     14716     14718     14718     14719
     14718     14720     14718     14721     14721     14722     14721     14723
     14723     14724     14723     14725     14725     14726     14725     14727
     14725     14728     14728     14729     14728     14730     14730     14731
     14730     14732     14732     14733     14732     14734     14732     14735
     14735     14736     14735     14737     14737     14738     14737     14739
     14739     14740     14739     14741     14739     14742     14742     14743
     14742     14744     14742     14745     14745     14746     14745     14747
     14745     14748     14748     14749     14748     14750     14748     14751
     14751     14752     14751     14753     14751     14754     14702     14703
     14703     14705     14703     14704     14705     14706     14705     14707
     14705     14755     14755     14756     14755     14757     14755     14758
     14758     14759     14758     14760     14758     14761     14761     14762
     14761     14763     14761     14764     14764     14765     14764     14766
     14764     14767     14767     14768     14767     14769     14767     14770
     14770     14771     14770     14772     14770     14773     14773     14774
     14773     14775     14773     14776     14776     14777     14776     14778
     14776     14779     14779     14780     14779     14781     14779     14782
     14782     14783     14782     14784     14782     14785     14785     14786
     14785     14787     14785     14788     14788     14789     14788     14790
     14788     14791     14791     14792     14791     14793     14791     14794
     14794     14795     14794     14796     14794     14797     14797     14798
     14797     14799     14797     14800     14800     14801     14800     14802
     14800     14803     14879     14880     14879     14881     14879     14882
     14879     14876     14876     14877     14876     14878     14876     14873
     14873     14874     14873     14875     14873     14870     14870     14871
     14870     14872     14870     14867     14867     14868     14867     14869
     14867     14864     14864     14865     14864     14866     14864     14861
     14861     14862     14861     14863     14861     14858     14858     14859
     14858     14860     14858     14855     14855     14856     14855     14857
     14855     14852     14852     14853     14852     14854     14852     14849
     14849     14850     14849     14851     14849     14846     14846     14847
     14846     14848     14846     14843     14843     14844     14843     14845
     14843     14841     14841     14842     14839     14840     14839     14835
     14835     14836     14835     14837     14837     14838     14835     14833
     14833     14834     14833     14828     14828     14829     14828     14830
     14828     14826     14826     14823     14827     14823     14824     14823
     14825     14823     14827     14820     14820     14821     14820     14822
     14820     14817     14817     14818     14817     14819     14817     14804
     14804     14813     14804     14809     14804     14805     14813     14814
     14813     14815     14813     14816     14809     14810     14809     14811
     14809     14812     14805     14806     14805     14807     14805     14808
     14833     14831     14831     14832     14831     14883     14883     14885
     14885     14886     14885     14887     14885     14888     14888     14889
     14888     14890     14888     14891     14891     14892     14891     14893
     14891     14894     14894     14895     14894     14896     14894     14897
     14897     14898     14897     14899     14897     14900     14900     14901
     14900     14902     14900     14903     14903     14904     14903     14905
     14903     14906     14906     14907     14908     14909     14908     14910
     14910     14911     14910     14912     14910     14913     14913     14914
     14913     14915     14913     14916     14916     14917     14916     14918
     14916     14919     14919     14920     14919     14921     14919     14922
     14922     14923     14922     14924     14922     14925     14925     14926
     14925     14927     14925     14928     14928     14929     14928     14930
     14928     14931     14931     14932     14931     14933     14931     14934
     14839     14841     14906     14908     14883     14884     14935     14936
     14935     14940     14935     14944     14936     14937     14936     14938
     14936     14939     14940     14941     14940     14942     14940     14943
     14944     14945     14944     14946     14944     14947     14935     14948
     14948     14949     14948     14950     14948     14951     14951     14952
     14951     14953     14951     14957     14958     14959     14957     14954
     14954     14958     14954     14955     14954     14956     14959     14960
     14959     14961     14959     14962     14962     14963     14962     14970
     14962     14964     14970     14971     14970     14972     14970     14973
     14964     14965     14965     14967     14965     14966     14967     14968
     14967     14969     14967     14979     14979     14980     14979     14981
     14979     14982     14982     14983     14982     14984     14982     14985
     14985     14986     14985     14987     14985     14988     14988     14989
     14988     14990     14988     14991     14991     14992     14991     14993
     14991     14994     14994     14995     14994     14996     14994     14997
     14997     14998     14997     14999     14999     15000     14999     15001
     15001     15002     15001     15003     15001     15004     15004     15005
     15004     15006     15006     15007     15006     15008     15008     15009
     15008     15010     15008     15011     15011     15012     15011     15013
     15011     15014     15014     15015     15014     15016     15014     15017
     15017     15018     15017     15019     15017     15020     15020     15021
     15020     15022     15020     15023     14973     14974     14974     14976
     14974     14975     14976     14977     14976     14978     14976     15024
     15024     15025     15024     15026     15024     15027     15027     15028
     15027     15029     15027     15030     15030     15031     15030     15032
     15030     15033     15033     15034     15033     15035     15033     15036
     15036     15037     15036     15038     15036     15039     15039     15040
     15039     15041     15039     15042     15042     15043     15042     15044
     15042     15045     15045     15046     15045     15047     15045     15048
     15048     15049     15048     15050     15048     15051     15051     15052
     15051     15053     15051     15054     15054     15055     15054     15056
     15054     15057     15057     15058     15057     15059     15057     15060
     15060     15061     15060     15062     15060     15063     15063     15064
     15063     15065     15063     15066     15066     15067     15066     15068
     15066     15069     15069     15070     15069     15071     15069     15072
     15073     15074     15073     15075     15073     15076     15073     15077
     15077     15078     15077     15079     15077     15080     15080     15081
     15080     15082     15080     15086     15088     15087     15086     15083
     15083     15087     15083     15084     15083     15085     15088     15089
     15088     15090     15088     15091     15091     15092     15091     15099
     15091     15093     15099     15100     15099     15101     15099     15102
     15093     15094     15094     15096     15094     15095     15096     15097
     15096     15098     15096     15108     15108     15109     15108     15110
     15108     15111     15111     15112     15111     15113     15111     15114
     15114     15115     15114     15116     15116     15117     15116     15118
     15118     15119     15118     15120     15118     15121     15121     15122
     15121     15123     15123     15124     15123     15125     15125     15126
     15125     15127     15125     15128     15128     15129     15128     15130
     15130     15131     15130     15132     15132     15133     15132     15134
     15132     15135     15135     15136     15135     15137     15137     15138
     15137     15139     15139     15140     15139     15141     15139     15142
     15142     15143     15142     15144     15142     15145     15145     15146
     15145     15147     15145     15148     15148     15149     15148     15150
     15148     15151     15151     15152     15151     15153     15151     15154
     15102     15103     15103     15105     15103     15104     15105     15106
     15105     15107     15105     15155     15155     15156     15155     15157
     15155     15158     15158     15159     15158     15160     15158     15161
     15161     15162     15161     15163     15161     15164     15164     15165
     15164     15166     15164     15167     15167     15168     15167     15169
     15167     15170     15170     15171     15170     15172     15170     15173
     15173     15174     15173     15175     15173     15176     15176     15177
     15176     15178     15176     15179     15179     15180     15179     15181
     15179     15182     15182     15183     15182     15184     15182     15185
     15185     15186     15185     15187     15185     15188     15188     15189
     15188     15190     15188     15191     15191     15192     15191     15193
     15191     15194     15194     15195     15194     15196     15194     15197
     15197     15198     15197     15199     15197     15200     15200     15201
     15200     15202     15200     15203     15204     15206     15204     15205
     15206     15207     15204     15250     15250     15251     15250     15252
     15250     15247     15247     15248     15247     15249     15204     15208
     15208     15209     15208     15210     15208     15211     15211     15242
     15242     15247     15242     15243     15243     15244     15243     15245
     15243     15246     15211     15212     15212     15213     15212     15214
     15214     15215     15214     15216     15214     15217     15217     15218
     15217     15240     15240     15241     15240     15242     15217     15219
     15219     15220     15219     15229     15229     15234     15234     15235
     15234     15236     15234     15237     15237     15238     15237     15239
     15237     15240     15229     15230     15230     15231     15230     15232
     15230     15233     15219     15221     15221     15222     15221     15223
     15221     15224     15224     15225     15224     15226     15224     15227
     15227     15228     15227     15229     15227     15253     15253     15254
     15253     15255     15255     15256     15255     15257     15255     15258
     15253     15259     15259     15260     15259     15261     15259     15262
     15262     15263     15262     15264     15262     15265     15265     15266
     15265     15267     15265     15268     15268     15269     15268     15270
     15270     15271     15270     15272     15270     15273     15268     15274
     15274     15275     15274     15276     15274     15277     15278     15279
     15278     15280     15278     15281     15278     15282     15286     15284
     15284     15282     15284     15285     15282     15283     15282     15287
     15295     15294     15287     15288     15287     15289     15287     15293
     15293     15290     15290     15294     15290     15291     15290     15292
     15295     15296     15295     15297     15295     15298     15298     15299
     15298     15306     15298     15300     15306     15307     15306     15308
     15306     15309     15300     15301     15301     15303     15301     15302
     15303     15304     15303     15305     15303     15315     15315     15316
     15315     15317     15315     15318     15318     15319     15318     15320
     15318     15321     15321     15322     15321     15323     15323     15324
     15323     15325     15325     15326     15325     15327     15325     15328
     15328     15329     15328     15330     15330     15331     15330     15332
     15332     15333     15332     15334     15332     15335     15335     15336
     15335     15337     15337     15338     15337     15339     15339     15340
     15339     15341     15339     15342     15342     15343     15342     15344
     15344     15345     15344     15346     15346     15347     15346     15348
     15346     15349     15349     15350     15349     15351     15349     15352
     15352     15353     15352     15354     15352     15355     15355     15356
     15355     15357     15355     15358     15358     15359     15358     15360
     15358     15361     15309     15310     15310     15312     15310     15311
     15312     15313     15312     15314     15312     15362     15362     15363
     15362     15364     15362     15365     15365     15366     15365     15367
     15365     15368     15368     15369     15368     15370     15368     15371
     15371     15372     15371     15373     15371     15374     15374     15375
     15374     15376     15374     15377     15377     15378     15377     15379
     15377     15380     15380     15381     15380     15382     15380     15383
     15383     15384     15383     15385     15383     15386     15386     15387
     15386     15388     15386     15389     15389     15390     15389     15391
     15389     15392     15392     15393     15392     15394     15392     15395
     15395     15396     15395     15397     15395     15398     15398     15399
     15398     15400     15398     15401     15401     15402     15401     15403
     15401     15404     15404     15405     15404     15406     15404     15407
     15407     15408     15407     15409     15407     15410     15411     15412
     15411     15413     15411     15414     15411     15415     15415     15416
     15415     15417     15415     15418     15418     15419     15418     15420
     15418     15424     15426     15425     15424     15421     15421     15425
     15421     15422     15421     15423     15426     15427     15426     15428
     15426     15429     15429     15430     15429     15437     15429     15431
     15437     15438     15437     15439     15437     15440     15431     15432
     15432     15434     15432     15433     15434     15435     15434     15436
     15434     15446     15446     15447     15446     15448     15446     15449
     15449     15450     15449     15451     15449     15452     15452     15453
     15452     15454     15452     15455     15455     15456     15455     15457
     15455     15458     15458     15459     15458     15460     15458     15461
     15461     15462     15461     15463     15461     15464     15464     15465
     15464     15466     15466     15467     15466     15468     15468     15469
     15468     15470     15468     15471     15471     15472     15471     15473
     15471     15474     15474     15475     15474     15476     15474     15477
     15477     15478     15477     15479     15477     15480     15480     15481
     15480     15482     15480     15483     15483     15484     15483     15485
     15483     15486     15486     15487     15486     15488     15486     15489
     15489     15490     15489     15491     15489     15492     15440     15441
     15441     15443     15441     15442     15443     15444     15443     15445
     15443     15493     15493     15494     15493     15495     15493     15496
     15496     15497     15496     15498     15496     15499     15499     15500
     15499     15501     15499     15502     15502     15503     15502     15504
     15502     15505     15505     15506     15505     15507     15505     15508
     15508     15509     15508     15510     15508     15511     15511     15512
     15511     15513     15511     15514     15514     15515     15514     15516
     15514     15517     15517     15518     15517     15519     15517     15520
     15520     15521     15520     15522     15520     15523     15523     15524
     15523     15525     15523     15526     15526     15527     15526     15528
     15526     15529     15529     15530     15529     15531     15529     15532
     15532     15533     15532     15534     15532     15535     15535     15536
     15535     15537     15535     15538     15538     15539     15538     15540
     15538     15541     15542     15544     15542     15543     15544     15545
     15542     15588     15588     15589     15588     15590     15588     15585
     15585     15586     15585     15587     15542     15546     15546     15547
     15546     15548     15546     15549     15549     15580     15580     15585
     15580     15581     15581     15582     15581     15583     15581     15584
     15549     15550     15550     15551     15550     15552     15552     15553
     15552     15554     15552     15555     15555     15556     15555     15578
     15578     15579     15578     15580     15555     15557     15557     15558
     15557     15567     15567     15572     15572     15573     15572     15574
     15572     15575     15575     15576     15575     15577     15575     15578
     15567     15568     15568     15569     15568     15570     15568     15571
     15557     15559     15559     15560     15559     15561     15559     15562
     15562     15563     15562     15564     15562     15565     15565     15566
     15565     15567     15565     15591     15591     15592     15591     15593
     15593     15594     15593     15595     15593     15596     15591     15597
     15597     15598     15597     15599     15597     15600     15600     15601
     15600     15602     15600     15603     15603     15604     15603     15605
     15603     15606     15606     15607     15606     15608     15608     15609
     15608     15610     15608     15611     15606     15612     15612     15613
     15612     15614     15612     15615     15616     15618     15616     15617
     15618     15619     15616     15662     15662     15663     15662     15664
     15662     15659     15659     15660     15659     15661     15616     15620
     15620     15621     15620     15622     15620     15623     15623     15654
     15654     15659     15654     15655     15655     15656     15655     15657
     15655     15658     15623     15624     15624     15625     15624     15626
     15626     15627     15626     15628     15626     15629     15629     15630
     15629     15652     15652     15653     15652     15654     15629     15631
     15631     15632     15631     15641     15641     15646     15646     15647
     15646     15648     15646     15649     15649     15650     15649     15651
     15649     15652     15641     15642     15642     15643     15642     15644
     15642     15645     15631     15633     15633     15634     15633     15635
     15633     15636     15636     15637     15636     15638     15636     15639
     15639     15640     15639     15641     15639     15665     15665     15666
     15665     15667     15667     15668     15667     15669     15667     15670
     15665     15671     15671     15672     15671     15673     15671     15674
     15674     15675     15674     15676     15674     15677     15677     15678
     15677     15679     15677     15680     15680     15681     15680     15682
     15682     15683     15682     15684     15682     15685     15680     15686
     15686     15687     15686     15688     15686     15689     15765     15766
     15765     15767     15765     15768     15765     15762     15762     15763
     15762     15764     15762     15759     15759     15760     15759     15761
     15759     15756     15756     15757     15756     15758     15756     15753
     15753     15754     15753     15755     15753     15750     15750     15751
     15750     15752     15750     15747     15747     15748     15747     15749
     15747     15744     15744     15745     15744     15746     15744     15741
     15741     15742     15741     15743     15741     15738     15738     15739
     15738     15740     15738     15735     15735     15736     15735     15737
     15735     15732     15732     15733     15732     15734     15732     15729
     15729     15730     15729     15731     15729     15727     15727     15728
     15725     15726     15725     15721     15721     15722     15721     15723
     15723     15724     15721     15719     15719     15720     15719     15714
     15714     15715     15714     15716     15714     15712     15712     15709
     15713     15709     15710     15709     15711     15709     15713     15706
     15706     15707     15706     15708     15706     15703     15703     15704
     15703     15705     15703     15690     15690     15699     15690     15695
     15690     15691     15699     15700     15699     15701     15699     15702
     15695     15696     15695     15697     15695     15698     15691     15692
     15691     15693     15691     15694     15719     15717     15717     15718
     15717     15769     15769     15771     15771     15772     15771     15773
     15771     15774     15774     15775     15774     15776     15774     15777
     15777     15778     15777     15779     15777     15780     15780     15781
     15780     15782     15780     15783     15783     15784     15783     15785
     15783     15786     15786     15787     15786     15788     15786     15789
     15789     15790     15789     15791     15789     15792     15792     15793
     15794     15795     15794     15796     15796     15797     15796     15798
     15796     15799     15799     15800     15799     15801     15799     15802
     15802     15803     15802     15804     15802     15805     15805     15806
     15805     15807     15805     15808     15808     15809     15808     15810
     15808     15811     15811     15812     15811     15813     15811     15814
     15814     15815     15814     15816     15814     15817     15817     15818
     15817     15819     15817     15820     15725     15727     15792     15794
     15769     15770     15821     15822     15821     15823     15821     15824
     15821     15825     15825     15826     15825     15827     15825     15828
     15828     15829     15828     15830     15828     15834     15836     15835
     15834     15831     15831     15835     15831     15832     15831     15833
     15836     15837     15836     15838     15836     15839     15839     15840
     15839     15847     15839     15841     15847     15848     15847     15849
     15847     15850     15841     15842     15842     15844     15842     15843
     15844     15845     15844     15846     15844     15856     15856     15857
     15856     15858     15856     15859     15859     15860     15859     15861
     15859     15862     15862     15863     15862     15864     15864     15865
     15864     15866     15866     15867     15866     15868     15866     15869
     15869     15870     15869     15871     15871     15872     15871     15873
     15873     15874     15873     15875     15873     15876     15876     15877
     15876     15878     15878     15879     15878     15880     15880     15881
     15880     15882     15880     15883     15883     15884     15883     15885
     15885     15886     15885     15887     15887     15888     15887     15889
     15887     15890     15890     15891     15890     15892     15890     15893
     15893     15894     15893     15895     15893     15896     15896     15897
     15896     15898     15896     15899     15899     15900     15899     15901
     15899     15902     15850     15851     15851     15853     15851     15852
     15853     15854     15853     15855     15853     15903     15903     15904
     15903     15905     15903     15906     15906     15907     15906     15908
     15906     15909     15909     15910     15909     15911     15909     15912
     15912     15913     15912     15914     15912     15915     15915     15916
     15915     15917     15915     15918     15918     15919     15918     15920
     15918     15921     15921     15922     15921     15923     15921     15924
     15924     15925     15924     15926     15924     15927     15927     15928
     15927     15929     15927     15930     15930     15931     15930     15932
     15930     15933     15933     15934     15933     15935     15933     15936
     15936     15937     15936     15938     15936     15939     15939     15940
     15939     15941     15939     15942     15942     15943     15942     15944
     15942     15945     15945     15946     15945     15947     15945     15948
     15948     15949     15948     15950     15948     15951     15952     15953
     15952     15957     15952     15961     15953     15954     15953     15955
     15953     15956     15957     15958     15957     15959     15957     15960
     15961     15962     15961     15963     15961     15964     15952     15965
     15965     15966     15965     15967     15965     15968     15968     15969
     15968     15970     15968     15974     15975     15976     15974     15971
     15971     15975     15971     15972     15971     15973     15976     15977
     15976     15978     15976     15979     15979     15980     15979     15987
     15979     15981     15987     15988     15987     15989     15987     15990
     15981     15982     15982     15984     15982     15983     15984     15985
     15984     15986     15984     15996     15996     15997     15996     15998
     15996     15999     15999     16000     15999     16001     15999     16002
     16002     16003     16002     16004     16002     16005     16005     16006
     16005     16007     16005     16008     16008     16009     16008     16010
     16008     16011     16011     16012     16011     16013     16011     16014
     16014     16015     16014     16016     16016     16017     16016     16018
     16018     16019     16018     16020     16018     16021     16021     16022
     16021     16023     16023     16024     16023     16025     16025     16026
     16025     16027     16025     16028     16028     16029     16028     16030
     16028     16031     16031     16032     16031     16033     16031     16034
     16034     16035     16034     16036     16034     16037     16037     16038
     16037     16039     16037     16040     15990     15991     15991     15993
     15991     15992     15993     15994     15993     15995     15993     16041
     16041     16042     16041     16043     16041     16044     16044     16045
     16044     16046     16044     16047     16047     16048     16047     16049
     16047     16050     16050     16051     16050     16052     16050     16053
     16053     16054     16053     16055     16053     16056     16056     16057
     16056     16058     16056     16059     16059     16060     16059     16061
     16059     16062     16062     16063     16062     16064     16062     16065
     16065     16066     16065     16067     16065     16068     16068     16069
     16068     16070     16068     16071     16071     16072     16071     16073
     16071     16074     16074     16075     16074     16076     16074     16077
     16077     16078     16077     16079     16077     16080     16080     16081
     16080     16082     16080     16083     16083     16084     16083     16085
     16083     16086     16086     16087     16086     16088     16086     16089
     16090     16091     16090     16095     16090     16099     16091     16092
     16091     16093     16091     16094     16095     16096     16095     16097
     16095     16098     16099     16100     16099     16101     16099     16102
     16090     16103     16103     16104     16103     16105     16103     16106
     16106     16107     16106     16108     16106     16112     16113     16114
     16112     16109     16109     16113     16109     16110     16109     16111
     16114     16115     16114     16116     16114     16117     16117     16118
     16117     16125     16117     16119     16125     16126     16125     16127
     16125     16128     16119     16120     16120     16122     16120     16121
     16122     16123     16122     16124     16122     16134     16134     16135
     16134     16136     16134     16137     16137     16138     16137     16139
     16137     16140     16140     16141     16140     16142     16140     16143
     16143     16144     16143     16145     16143     16146     16146     16147
     16146     16148     16146     16149     16149     16150     16149     16151
     16149     16152     16152     16153     16152     16154     16154     16155
     16154     16156     16156     16157     16156     16158     16156     16159
     16159     16160     16159     16161     16161     16162     16161     16163
     16163     16164     16163     16165     16163     16166     16166     16167
     16166     16168     16166     16169     16169     16170     16169     16171
     16169     16172     16172     16173     16172     16174     16172     16175
     16175     16176     16175     16177     16175     16178     16128     16129
     16129     16131     16129     16130     16131     16132     16131     16133
     16131     16179     16179     16180     16179     16181     16179     16182
     16182     16183     16182     16184     16182     16185     16185     16186
     16185     16187     16185     16188     16188     16189     16188     16190
     16188     16191     16191     16192     16191     16193     16191     16194
     16194     16195     16194     16196     16194     16197     16197     16198
     16197     16199     16197     16200     16200     16201     16200     16202
     16200     16203     16203     16204     16203     16205     16203     16206
     16206     16207     16206     16208     16206     16209     16209     16210
     16209     16211     16209     16212     16212     16213     16212     16214
     16212     16215     16215     16216     16215     16217     16215     16218
     16218     16219     16218     16220     16218     16221     16221     16222
     16221     16223     16221     16224     16224     16225     16224     16226
     16224     16227     16303     16304     16303     16305     16303     16306
     16303     16300     16300     16301     16300     16302     16300     16297
     16297     16298     16297     16299     16297     16294     16294     16295
     16294     16296     16294     16291     16291     16292     16291     16293
     16291     16288     16288     16289     16288     16290     16288     16285
     16285     16286     16285     16287     16285     16282     16282     16283
     16282     16284     16282     16279     16279     16280     16279     16281
     16279     16276     16276     16277     16276     16278     16276     16273
     16273     16274     16273     16275     16273     16270     16270     16271
     16270     16272     16270     16267     16267     16268     16267     16269
     16267     16265     16265     16266     16263     16264     16263     16259
     16259     16260     16259     16261     16261     16262     16259     16257
     16257     16258     16257     16252     16252     16253     16252     16254
     16252     16250     16250     16247     16251     16247     16248     16247
     16249     16247     16251     16244     16244     16245     16244     16246
     16244     16241     16241     16242     16241     16243     16241     16228
     16228     16237     16228     16233     16228     16229     16237     16238
     16237     16239     16237     16240     16233     16234     16233     16235
     16233     16236     16229     16230     16229     16231     16229     16232
     16257     16255     16255     16256     16255     16307     16307     16309
     16309     16310     16309     16311     16309     16312     16312     16313
     16312     16314     16312     16315     16315     16316     16315     16317
     16315     16318     16318     16319     16318     16320     16318     16321
     16321     16322     16321     16323     16321     16324     16324     16325
     16324     16326     16324     16327     16327     16328     16327     16329
     16327     16330     16330     16331     16332     16333     16332     16334
     16334     16335     16334     16336     16334     16337     16337     16338
     16337     16339     16337     16340     16340     16341     16340     16342
     16340     16343     16343     16344     16343     16345     16343     16346
     16346     16347     16346     16348     16346     16349     16349     16350
     16349     16351     16349     16352     16352     16353     16352     16354
     16352     16355     16355     16356     16355     16357     16355     16358
     16263     16265     16330     16332     16307     16308     16359     16360
     16359     16361     16359     16362     16359     16363     16367     16365
     16365     16363     16365     16366     16363     16364     16363     16368
     16376     16375     16368     16369     16368     16370     16368     16374
     16374     16371     16371     16375     16371     16372     16371     16373
     16376     16377     16376     16378     16376     16379     16379     16380
     16379     16387     16379     16381     16387     16388     16387     16389
     16387     16390     16381     16382     16382     16384     16382     16383
     16384     16385     16384     16386     16384     16396     16396     16397
     16396     16398     16396     16399     16399     16400     16399     16401
     16399     16402     16402     16403     16402     16404     16404     16405
     16404     16406     16406     16407     16406     16408     16406     16409
     16409     16410     16409     16411     16411     16412     16411     16413
     16413     16414     16413     16415     16413     16416     16416     16417
     16416     16418     16418     16419     16418     16420     16420     16421
     16420     16422     16420     16423     16423     16424     16423     16425
     16425     16426     16425     16427     16427     16428     16427     16429
     16427     16430     16430     16431     16430     16432     16430     16433
     16433     16434     16433     16435     16433     16436     16436     16437
     16436     16438     16436     16439     16439     16440     16439     16441
     16439     16442     16390     16391     16391     16393     16391     16392
     16393     16394     16393     16395     16393     16443     16443     16444
     16443     16445     16443     16446     16446     16447     16446     16448
     16446     16449     16449     16450     16449     16451     16449     16452
     16452     16453     16452     16454     16452     16455     16455     16456
     16455     16457     16455     16458     16458     16459     16458     16460
     16458     16461     16461     16462     16461     16463     16461     16464
     16464     16465     16464     16466     16464     16467     16467     16468
     16467     16469     16467     16470     16470     16471     16470     16472
     16470     16473     16473     16474     16473     16475     16473     16476
     16476     16477     16476     16478     16476     16479     16479     16480
     16479     16481     16479     16482     16482     16483     16482     16484
     16482     16485     16485     16486     16485     16487     16485     16488
     16488     16489     16488     16490     16488     16491     16492     16493
     16492     16497     16492     16501     16493     16494     16493     16495
     16493     16496     16497     16498     16497     16499     16497     16500
     16501     16502     16501     16503     16501     16504     16492     16505
     16505     16506     16505     16507     16505     16508     16508     16509
     16508     16510     16508     16514     16515     16516     16514     16511
     16511     16515     16511     16512     16511     16513     16516     16517
     16516     16518     16516     16519     16519     16520     16519     16527
     16519     16521     16527     16528     16527     16529     16527     16530
     16521     16522     16522     16524     16522     16523     16524     16525
     16524     16526     16524     16536     16536     16537     16536     16538
     16536     16539     16539     16540     16539     16541     16539     16542
     16542     16543     16542     16544     16542     16545     16545     16546
     16545     16547     16545     16548     16548     16549     16548     16550
     16548     16551     16551     16552     16551     16553     16551     16554
     16554     16555     16554     16556     16556     16557     16556     16558
     16558     16559     16558     16560     16558     16561     16561     16562
     16561     16563     16563     16564     16563     16565     16565     16566
     16565     16567     16565     16568     16568     16569     16568     16570
     16568     16571     16571     16572     16571     16573     16571     16574
     16574     16575     16574     16576     16574     16577     16577     16578
     16577     16579     16577     16580     16530     16531     16531     16533
     16531     16532     16533     16534     16533     16535     16533     16581
     16581     16582     16581     16583     16581     16584     16584     16585
     16584     16586     16584     16587     16587     16588     16587     16589
     16587     16590     16590     16591     16590     16592     16590     16593
     16593     16594     16593     16595     16593     16596     16596     16597
     16596     16598     16596     16599     16599     16600     16599     16601
     16599     16602     16602     16603     16602     16604     16602     16605
     16605     16606     16605     16607     16605     16608     16608     16609
     16608     16610     16608     16611     16611     16612     16611     16613
     16611     16614     16614     16615     16614     16616     16614     16617
     16617     16618     16617     16619     16617     16620     16620     16621
     16620     16622     16620     16623     16623     16624     16623     16625
     16623     16626     16626     16627     16626     16628     16626     16629
     16630     16631     16630     16632     16630     16633     16630     16634
     16638     16636     16636     16634     16636     16637     16634     16635
     16634     16639     16647     16646     16639     16640     16639     16641
     16639     16645     16645     16642     16642     16646     16642     16643
     16642     16644     16647     16648     16647     16649     16647     16650
     16650     16651     16650     16658     16650     16652     16658     16659
     16658     16660     16658     16661     16652     16653     16653     16655
     16653     16654     16655     16656     16655     16657     16655     16667
     16667     16668     16667     16669     16667     16670     16670     16671
     16670     16672     16670     16673     16673     16674     16673     16675
     16675     16676     16675     16677     16677     16678     16677     16679
     16677     16680     16680     16681     16680     16682     16682     16683
     16682     16684     16684     16685     16684     16686     16684     16687
     16687     16688     16687     16689     16689     16690     16689     16691
     16691     16692     16691     16693     16691     16694     16694     16695
     16694     16696     16696     16697     16696     16698     16698     16699
     16698     16700     16698     16701     16701     16702     16701     16703
     16701     16704     16704     16705     16704     16706     16704     16707
     16707     16708     16707     16709     16707     16710     16710     16711
     16710     16712     16710     16713     16661     16662     16662     16664
     16662     16663     16664     16665     16664     16666     16664     16714
     16714     16715     16714     16716     16714     16717     16717     16718
     16717     16719     16717     16720     16720     16721     16720     16722
     16720     16723     16723     16724     16723     16725     16723     16726
     16726     16727     16726     16728     16726     16729     16729     16730
     16729     16731     16729     16732     16732     16733     16732     16734
     16732     16735     16735     16736     16735     16737     16735     16738
     16738     16739     16738     16740     16738     16741     16741     16742
     16741     16743     16741     16744     16744     16745     16744     16746
     16744     16747     16747     16748     16747     16749     16747     16750
     16750     16751     16750     16752     16750     16753     16753     16754
     16753     16755     16753     16756     16756     16757     16756     16758
     16756     16759     16759     16760     16759     16761     16759     16762
     16763     16765     16763     16764     16765     16766     16763     16809
     16809     16810     16809     16811     16809     16806     16806     16807
     16806     16808     16763     16767     16767     16768     16767     16769
     16767     16770     16770     16801     16801     16806     16801     16802
     16802     16803     16802     16804     16802     16805     16770     16771
     16771     16772     16771     16773     16773     16774     16773     16775
     16773     16776     16776     16777     16776     16799     16799     16800
     16799     16801     16776     16778     16778     16779     16778     16788
     16788     16793     16793     16794     16793     16795     16793     16796
     16796     16797     16796     16798     16796     16799     16788     16789
     16789     16790     16789     16791     16789     16792     16778     16780
     16780     16781     16780     16782     16780     16783     16783     16784
     16783     16785     16783     16786     16786     16787     16786     16788
     16786     16812     16812     16813     16812     16814     16814     16815
     16814     16816     16814     16817     16812     16818     16818     16819
     16818     16820     16818     16821     16821     16822     16821     16823
     16821     16824     16824     16825     16824     16826     16824     16827
     16827     16828     16827     16829     16829     16830     16829     16831
     16829     16832     16827     16833     16833     16834     16833     16835
     16833     16836     16837     16839     16837     16838     16839     16840
     16837     16883     16883     16884     16883     16885     16883     16880
     16880     16881     16880     16882     16837     16841     16841     16842
     16841     16843     16841     16844     16844     16875     16875     16880
     16875     16876     16876     16877     16876     16878     16876     16879
     16844     16845     16845     16846     16845     16847     16847     16848
     16847     16849     16847     16850     16850     16851     16850     16873
     16873     16874     16873     16875     16850     16852     16852     16853
     16852     16862     16862     16867     16867     16868     16867     16869
     16867     16870     16870     16871     16870     16872     16870     16873
     16862     16863     16863     16864     16863     16865     16863     16866
     16852     16854     16854     16855     16854     16856     16854     16857
     16857     16858     16857     16859     16857     16860     16860     16861
     16860     16862     16860     16886     16886     16887     16886     16888
     16888     16889     16888     16890     16888     16891     16886     16892
     16892     16893     16892     16894     16892     16895     16895     16896
     16895     16897     16895     16898     16898     16899     16898     16900
     16898     16901     16901     16902     16901     16903     16903     16904
     16903     16905     16903     16906     16901     16907     16907     16908
     16907     16909     16907     16910     16911     16913     16911     16912
     16913     16914     16911     16957     16957     16958     16957     16959
     16957     16954     16954     16955     16954     16956     16911     16915
     16915     16916     16915     16917     16915     16918     16918     16949
     16949     16954     16949     16950     16950     16951     16950     16952
     16950     16953     16918     16919     16919     16920     16919     16921
     16921     16922     16921     16923     16921     16924     16924     16925
     16924     16947     16947     16948     16947     16949     16924     16926
     16926     16927     16926     16936     16936     16941     16941     16942
     16941     16943     16941     16944     16944     16945     16944     16946
     16944     16947     16936     16937     16937     16938     16937     16939
     16937     16940     16926     16928     16928     16929     16928     16930
     16928     16931     16931     16932     16931     16933     16931     16934
     16934     16935     16934     16936     16934     16960     16960     16961
     16960     16962     16962     16963     16962     16964     16962     16965
     16960     16966     16966     16967     16966     16968     16966     16969
     16969     16970     16969     16971     16969     16972     16972     16973
     16972     16974     16972     16975     16975     16976     16975     16977
     16977     16978     16977     16979     16977     16980     16975     16981
     16981     16982     16981     16983     16981     16984     16985     16986
     16985     16987     16985     16988     16985     16989     16989     16990
     16989     16991     16989     16992     16992     16993     16992     16994
     16992     16998     17000     16999     16998     16995     16995     16999
     16995     16996     16995     16997     17000     17001     17000     17002
     17000     17003     17003     17004     17003     17011     17003     17005
     17011     17012     17011     17013     17011     17014     17005     17006
     17006     17008     17006     17007     17008     17009     17008     17010
     17008     17020     17020     17021     17020     17022     17020     17023
     17023     17024     17023     17025     17023     17026     17026     17027
     17026     17028     17026     17029     17029     17030     17029     17031
     17029     17032     17032     17033     17032     17034     17032     17035
     17035     17036     17035     17037     17035     17038     17038     17039
     17038     17040     17040     17041     17040     17042     17042     17043
     17042     17044     17042     17045     17045     17046     17045     17047
     17045     17048     17048     17049     17048     17050     17048     17051
     17051     17052     17051     17053     17051     17054     17054     17055
     17054     17056     17054     17057     17057     17058     17057     17059
     17057     17060     17060     17061     17060     17062     17060     17063
     17063     17064     17063     17065     17063     17066     17014     17015
     17015     17017     17015     17016     17017     17018     17017     17019
     17017     17067     17067     17068     17067     17069     17067     17070
     17070     17071     17070     17072     17070     17073     17073     17074
     17073     17075     17073     17076     17076     17077     17076     17078
     17076     17079     17079     17080     17079     17081     17079     17082
     17082     17083     17082     17084     17082     17085     17085     17086
     17085     17087     17085     17088     17088     17089     17088     17090
     17088     17091     17091     17092     17091     17093     17091     17094
     17094     17095     17094     17096     17094     17097     17097     17098
     17097     17099     17097     17100     17100     17101     17100     17102
     17100     17103     17103     17104     17103     17105     17103     17106
     17106     17107     17106     17108     17106     17109     17109     17110
     17109     17111     17109     17112     17112     17113     17112     17114
     17112     17115     17116     17117     17116     17121     17116     17125
     17117     17118     17117     17119     17117     17120     17121     17122
     17121     17123     17121     17124     17125     17126     17125     17127
     17125     17128     17116     17129     17129     17130     17129     17131
     17129     17132     17132     17133     17132     17134     17132     17138
     17139     17140     17138     17135     17135     17139     17135     17136
     17135     17137     17140     17141     17140     17142     17140     17143
     17143     17144     17143     17151     17143     17145     17151     17152
     17151     17153     17151     17154     17145     17146     17146     17148
     17146     17147     17148     17149     17148     17150     17148     17160
     17160     17161     17160     17162     17160     17163     17163     17164
     17163     17165     17163     17166     17166     17167     17166     17168
     17166     17169     17169     17170     17169     17171     17169     17172
     17172     17173     17172     17174     17172     17175     17175     17176
     17175     17177     17175     17178     17178     17179     17178     17180
     17180     17181     17180     17182     17182     17183     17182     17184
     17182     17185     17185     17186     17185     17187     17187     17188
     17187     17189     17189     17190     17189     17191     17189     17192
     17192     17193     17192     17194     17192     17195     17195     17196
     17195     17197     17195     17198     17198     17199     17198     17200
     17198     17201     17201     17202     17201     17203     17201     17204
     17154     17155     17155     17157     17155     17156     17157     17158
     17157     17159     17157     17205     17205     17206     17205     17207
     17205     17208     17208     17209     17208     17210     17208     17211
     17211     17212     17211     17213     17211     17214     17214     17215
     17214     17216     17214     17217     17217     17218     17217     17219
     17217     17220     17220     17221     17220     17222     17220     17223
     17223     17224     17223     17225     17223     17226     17226     17227
     17226     17228     17226     17229     17229     17230     17229     17231
     17229     17232     17232     17233     17232     17234     17232     17235
     17235     17236     17235     17237     17235     17238     17238     17239
     17238     17240     17238     17241     17241     17242     17241     17243
     17241     17244     17244     17245     17244     17246     17244     17247
     17247     17248     17247     17249     17247     17250     17250     17251
     17250     17252     17250     17253     17254     17256     17254     17255
     17256     17257     17254     17300     17300     17301     17300     17302
     17300     17297     17297     17298     17297     17299     17254     17258
     17258     17259     17258     17260     17258     17261     17261     17292
     17292     17297     17292     17293     17293     17294     17293     17295
     17293     17296     17261     17262     17262     17263     17262     17264
     17264     17265     17264     17266     17264     17267     17267     17268
     17267     17290     17290     17291     17290     17292     17267     17269
     17269     17270     17269     17279     17279     17284     17284     17285
     17284     17286     17284     17287     17287     17288     17287     17289
     17287     17290     17279     17280     17280     17281     17280     17282
     17280     17283     17269     17271     17271     17272     17271     17273
     17271     17274     17274     17275     17274     17276     17274     17277
     17277     17278     17277     17279     17277     17303     17303     17304
     17303     17305     17305     17306     17305     17307     17305     17308
     17303     17309     17309     17310     17309     17311     17309     17312
     17312     17313     17312     17314     17312     17315     17315     17316
     17315     17317     17315     17318     17318     17319     17318     17320
     17320     17321     17320     17322     17320     17323     17318     17324
     17324     17325     17324     17326     17324     17327     17328     17329
     17328     17330     17328     17331     17328     17332     17332     17333
     17332     17334     17332     17335     17335     17336     17335     17337
     17335     17341     17343     17342     17341     17338     17338     17342
     17338     17339     17338     17340     17343     17344     17343     17345
     17343     17346     17346     17347     17346     17354     17346     17348
     17354     17355     17354     17356     17354     17357     17348     17349
     17349     17351     17349     17350     17351     17352     17351     17353
     17351     17363     17363     17364     17363     17365     17363     17366
     17366     17367     17366     17368     17366     17369     17369     17370
     17369     17371     17371     17372     17371     17373     17373     17374
     17373     17375     17373     17376     17376     17377     17376     17378
     17378     17379     17378     17380     17380     17381     17380     17382
     17380     17383     17383     17384     17383     17385     17385     17386
     17385     17387     17387     17388     17387     17389     17387     17390
     17390     17391     17390     17392     17392     17393     17392     17394
     17394     17395     17394     17396     17394     17397     17397     17398
     17397     17399     17397     17400     17400     17401     17400     17402
     17400     17403     17403     17404     17403     17405     17403     17406
     17406     17407     17406     17408     17406     17409     17357     17358
     17358     17360     17358     17359     17360     17361     17360     17362
     17360     17410     17410     17411     17410     17412     17410     17413
     17413     17414     17413     17415     17413     17416     17416     17417
     17416     17418     17416     17419     17419     17420     17419     17421
     17419     17422     17422     17423     17422     17424     17422     17425
     17425     17426     17425     17427     17425     17428     17428     17429
     17428     17430     17428     17431     17431     17432     17431     17433
     17431     17434     17434     17435     17434     17436     17434     17437
     17437     17438     17437     17439     17437     17440     17440     17441
     17440     17442     17440     17443     17443     17444     17443     17445
     17443     17446     17446     17447     17446     17448     17446     17449
     17449     17450     17449     17451     17449     17452     17452     17453
     17452     17454     17452     17455     17455     17456     17455     17457
     17455     17458     17459     17461     17459     17460     17461     17462
     17459     17505     17505     17506     17505     17507     17505     17502
     17502     17503     17502     17504     17459     17463     17463     17464
     17463     17465     17463     17466     17466     17497     17497     17502
     17497     17498     17498     17499     17498     17500     17498     17501
     17466     17467     17467     17468     17467     17469     17469     17470
     17469     17471     17469     17472     17472     17473     17472     17495
     17495     17496     17495     17497     17472     17474     17474     17475
     17474     17484     17484     17489     17489     17490     17489     17491
     17489     17492     17492     17493     17492     17494     17492     17495
     17484     17485     17485     17486     17485     17487     17485     17488
     17474     17476     17476     17477     17476     17478     17476     17479
     17479     17480     17479     17481     17479     17482     17482     17483
     17482     17484     17482     17508     17508     17509     17508     17510
     17510     17511     17510     17512     17510     17513     17508     17514
     17514     17515     17514     17516     17514     17517     17517     17518
     17517     17519     17517     17520     17520     17521     17520     17522
     17520     17523     17523     17524     17523     17525     17525     17526
     17525     17527     17525     17528     17523     17529     17529     17530
     17529     17531     17529     17532     17533     17534     17533     17535
     17533     17536     17533     17537     17537     17538     17537     17539
     17537     17540     17540     17541     17540     17542     17540     17546
     17548     17547     17546     17543     17543     17547     17543     17544
     17543     17545     17548     17549     17548     17550     17548     17551
     17551     17552     17551     17559     17551     17553     17559     17560
     17559     17561     17559     17562     17553     17554     17554     17556
     17554     17555     17556     17557     17556     17558     17556     17568
     17568     17569     17568     17570     17568     17571     17571     17572
     17571     17573     17571     17574     17574     17575     17574     17576
     17576     17577     17576     17578     17578     17579     17578     17580
     17578     17581     17581     17582     17581     17583     17583     17584
     17583     17585     17585     17586     17585     17587     17585     17588
     17588     17589     17588     17590     17590     17591     17590     17592
     17592     17593     17592     17594     17592     17595     17595     17596
     17595     17597     17597     17598     17597     17599     17599     17600
     17599     17601     17599     17602     17602     17603     17602     17604
     17602     17605     17605     17606     17605     17607     17605     17608
     17608     17609     17608     17610     17608     17611     17611     17612
     17611     17613     17611     17614     17562     17563     17563     17565
     17563     17564     17565     17566     17565     17567     17565     17615
     17615     17616     17615     17617     17615     17618     17618     17619
     17618     17620     17618     17621     17621     17622     17621     17623
     17621     17624     17624     17625     17624     17626     17624     17627
     17627     17628     17627     17629     17627     17630     17630     17631
     17630     17632     17630     17633     17633     17634     17633     17635
     17633     17636     17636     17637     17636     17638     17636     17639
     17639     17640     17639     17641     17639     17642     17642     17643
     17642     17644     17642     17645     17645     17646     17645     17647
     17645     17648     17648     17649     17648     17650     17648     17651
     17651     17652     17651     17653     17651     17654     17654     17655
     17654     17656     17654     17657     17657     17658     17657     17659
     17657     17660     17660     17661     17660     17662     17660     17663
     17664     17665     17664     17666     17664     17667     17664     17668
     17668     17669     17668     17670     17668     17671     17671     17672
     17671     17673     17671     17677     17679     17678     17677     17674
     17674     17678     17674     17675     17674     17676     17679     17680
     17679     17681     17679     17682     17682     17683     17682     17690
     17682     17684     17690     17691     17690     17692     17690     17693
     17684     17685     17685     17687     17685     17686     17687     17688
     17687     17689     17687     17699     17699     17700     17699     17701
     17699     17702     17702     17703     17702     17704     17702     17705
     17705     17706     17705     17707     17705     17708     17708     17709
     17708     17710     17708     17711     17711     17712     17711     17713
     17711     17714     17714     17715     17714     17716     17714     17717
     17717     17718     17717     17719     17719     17720     17719     17721
     17721     17722     17721     17723     17721     17724     17724     17725
     17724     17726     17724     17727     17727     17728     17727     17729
     17727     17730     17730     17731     17730     17732     17730     17733
     17733     17734     17733     17735     17733     17736     17736     17737
     17736     17738     17736     17739     17739     17740     17739     17741
     17739     17742     17742     17743     17742     17744     17742     17745
     17693     17694     17694     17696     17694     17695     17696     17697
     17696     17698     17696     17746     17746     17747     17746     17748
     17746     17749     17749     17750     17749     17751     17749     17752
     17752     17753     17752     17754     17752     17755     17755     17756
     17755     17757     17755     17758     17758     17759     17758     17760
     17758     17761     17761     17762     17761     17763     17761     17764
     17764     17765     17764     17766     17764     17767     17767     17768
     17767     17769     17767     17770     17770     17771     17770     17772
     17770     17773     17773     17774     17773     17775     17773     17776
     17776     17777     17776     17778     17776     17779     17779     17780
     17779     17781     17779     17782     17782     17783     17782     17784
     17782     17785     17785     17786     17785     17787     17785     17788
     17788     17789     17788     17790     17788     17791     17791     17792
     17791     17793     17791     17794     17795     17799     17795     17803
     17795     17807     17799     17800     17799     17801     17799     17802
     17803     17804     17803     17805     17803     17806     17807     17808
     17807     17809     17807     17810     17795     17796     17796     17797
     17796     17798     17796     17811     17811     17812     17811     17813
     17811     17817     17818     17819     17817     17814     17814     17818
     17814     17815     17814     17816     17819     17820     17819     17821
     17819     17822     17822     17823     17822     17830     17822     17824
     17830     17831     17830     17832     17830     17833     17824     17825
     17825     17827     17825     17826     17827     17828     17827     17829
     17827     17839     17839     17840     17839     17841     17839     17842
     17842     17843     17842     17844     17842     17845     17845     17846
     17845     17847     17847     17848     17847     17849     17849     17850
     17849     17851     17849     17852     17852     17853     17852     17854
     17854     17855     17854     17856     17856     17857     17856     17858
     17856     17859     17859     17860     17859     17861     17861     17862
     17861     17863     17863     17864     17863     17865     17863     17866
     17866     17867     17866     17868     17868     17869     17868     17870
     17870     17871     17870     17872     17870     17873     17873     17874
     17873     17875     17873     17876     17876     17877     17876     17878
     17876     17879     17879     17880     17879     17881     17879     17882
     17882     17883     17882     17884     17882     17885     17833     17834
     17834     17836     17834     17835     17836     17837     17836     17838
     17836     17886     17886     17887     17886     17888     17886     17889
     17889     17890     17889     17891     17889     17892     17892     17893
     17892     17894     17892     17895     17895     17896     17895     17897
     17895     17898     17898     17899     17898     17900     17898     17901
     17901     17902     17901     17903     17901     17904     17904     17905
     17904     17906     17904     17907     17907     17908     17907     17909
     17907     17910     17910     17911     17910     17912     17910     17913
     17913     17914     17913     17915     17913     17916     17916     17917
     17916     17918     17916     17919     17919     17920     17919     17921
     17919     17922     17922     17923     17922     17924     17922     17925
     17925     17926     17925     17927     17925     17928     17928     17929
     17928     17930     17928     17931     17931     17932     17931     17933
     17931     17934     17935     17939     17935     17943     17935     17947
     17939     17940     17939     17941     17939     17942     17943     17944
     17943     17945     17943     17946     17947     17948     17947     17949
     17947     17950     17935     17936     17936     17937     17936     17938
     17936     17951     17951     17952     17951     17953     17951     17957
     17958     17959     17957     17954     17954     17958     17954     17955
     17954     17956     17959     17960     17959     17961     17959     17962
     17962     17963     17962     17970     17962     17964     17970     17971
     17970     17972     17970     17973     17964     17965     17965     17967
     17965     17966     17967     17968     17967     17969     17967     17979
     17979     17980     17979     17981     17979     17982     17982     17983
     17982     17984     17982     17985     17985     17986     17985     17987
     17987     17988     17987     17989     17989     17990     17989     17991
     17989     17992     17992     17993     17992     17994     17994     17995
     17994     17996     17996     17997     17996     17998     17996     17999
     17999     18000     17999     18001     18001     18002     18001     18003
     18003     18004     18003     18005     18003     18006     18006     18007
     18006     18008     18008     18009     18008     18010     18010     18011
     18010     18012     18010     18013     18013     18014     18013     18015
     18013     18016     18016     18017     18016     18018     18016     18019
     18019     18020     18019     18021     18019     18022     18022     18023
     18022     18024     18022     18025     17973     17974     17974     17976
     17974     17975     17976     17977     17976     17978     17976     18026
     18026     18027     18026     18028     18026     18029     18029     18030
     18029     18031     18029     18032     18032     18033     18032     18034
     18032     18035     18035     18036     18035     18037     18035     18038
     18038     18039     18038     18040     18038     18041     18041     18042
     18041     18043     18041     18044     18044     18045     18044     18046
     18044     18047     18047     18048     18047     18049     18047     18050
     18050     18051     18050     18052     18050     18053     18053     18054
     18053     18055     18053     18056     18056     18057     18056     18058
     18056     18059     18059     18060     18059     18061     18059     18062
     18062     18063     18062     18064     18062     18065     18065     18066
     18065     18067     18065     18068     18068     18069     18068     18070
     18068     18071     18071     18072     18071     18073     18071     18074
     18150     18151     18150     18152     18150     18153     18150     18147
     18147     18148     18147     18149     18147     18144     18144     18145
     18144     18146     18144     18141     18141     18142     18141     18143
     18141     18138     18138     18139     18138     18140     18138     18135
     18135     18136     18135     18137     18135     18132     18132     18133
     18132     18134     18132     18129     18129     18130     18129     18131
     18129     18126     18126     18127     18126     18128     18126     18123
     18123     18124     18123     18125     18123     18120     18120     18121
     18120     18122     18120     18117     18117     18118     18117     18119
     18117     18114     18114     18115     18114     18116     18114     18112
     18112     18113     18110     18111     18110     18106     18106     18107
     18106     18108     18108     18109     18106     18104     18104     18105
     18104     18099     18099     18100     18099     18101     18099     18097
     18097     18094     18098     18094     18095     18094     18096     18094
     18098     18091     18091     18092     18091     18093     18091     18088
     18088     18089     18088     18090     18088     18075     18075     18084
     18075     18080     18075     18076     18084     18085     18084     18086
     18084     18087     18080     18081     18080     18082     18080     18083
     18076     18077     18076     18078     18076     18079     18104     18102
     18102     18103     18102     18154     18154     18156     18156     18157
     18156     18158     18156     18159     18159     18160     18159     18161
     18159     18162     18162     18163     18162     18164     18162     18165
     18165     18166     18165     18167     18165     18168     18168     18169
     18168     18170     18168     18171     18171     18172     18171     18173
     18171     18174     18174     18175     18174     18176     18174     18177
     18177     18178     18179     18180     18179     18181     18181     18182
     18181     18183     18181     18184     18184     18185     18184     18186
     18184     18187     18187     18188     18187     18189     18187     18190
     18190     18191     18190     18192     18190     18193     18193     18194
     18193     18195     18193     18196     18196     18197     18196     18198
     18196     18199     18199     18200     18199     18201     18199     18202
     18202     18203     18202     18204     18202     18205     18110     18112
     18177     18179     18154     18155     18206     18207     18206     18208
     18206     18209     18206     18210     18210     18211     18210     18212
     18210     18213     18213     18214     18213     18215     18213     18219
     18221     18220     18219     18216     18216     18220     18216     18217
     18216     18218     18221     18222     18221     18223     18221     18224
     18224     18225     18224     18232     18224     18226     18232     18233
     18232     18234     18232     18235     18226     18227     18227     18229
     18227     18228     18229     18230     18229     18231     18229     18241
     18241     18242     18241     18243     18241     18244     18244     18245
     18244     18246     18244     18247     18247     18248     18247     18249
     18249     18250     18249     18251     18251     18252     18251     18253
     18251     18254     18254     18255     18254     18256     18256     18257
     18256     18258     18258     18259     18258     18260     18258     18261
     18261     18262     18261     18263     18263     18264     18263     18265
     18265     18266     18265     18267     18265     18268     18268     18269
     18268     18270     18270     18271     18270     18272     18272     18273
     18272     18274     18272     18275     18275     18276     18275     18277
     18275     18278     18278     18279     18278     18280     18278     18281
     18281     18282     18281     18283     18281     18284     18284     18285
     18284     18286     18284     18287     18235     18236     18236     18238
     18236     18237     18238     18239     18238     18240     18238     18288
     18288     18289     18288     18290     18288     18291     18291     18292
     18291     18293     18291     18294     18294     18295     18294     18296
     18294     18297     18297     18298     18297     18299     18297     18300
     18300     18301     18300     18302     18300     18303     18303     18304
     18303     18305     18303     18306     18306     18307     18306     18308
     18306     18309     18309     18310     18309     18311     18309     18312
     18312     18313     18312     18314     18312     18315     18315     18316
     18315     18317     18315     18318     18318     18319     18318     18320
     18318     18321     18321     18322     18321     18323     18321     18324
     18324     18325     18324     18326     18324     18327     18327     18328
     18327     18329     18327     18330     18330     18331     18330     18332
     18330     18333     18333     18334     18333     18335     18333     18336
     18337     18339     18337     18338     18339     18340     18337     18383
     18383     18384     18383     18385     18383     18380     18380     18381
     18380     18382     18337     18341     18341     18342     18341     18343
     18341     18344     18344     18375     18375     18380     18375     18376
     18376     18377     18376     18378     18376     18379     18344     18345
     18345     18346     18345     18347     18347     18348     18347     18349
     18347     18350     18350     18351     18350     18373     18373     18374
     18373     18375     18350     18352     18352     18353     18352     18362
     18362     18367     18367     18368     18367     18369     18367     18370
     18370     18371     18370     18372     18370     18373     18362     18363
     18363     18364     18363     18365     18363     18366     18352     18354
     18354     18355     18354     18356     18354     18357     18357     18358
     18357     18359     18357     18360     18360     18361     18360     18362
     18360     18386     18386     18387     18386     18388     18388     18389
     18388     18390     18388     18391     18386     18392     18392     18393
     18392     18394     18392     18395     18395     18396     18395     18397
     18395     18398     18398     18399     18398     18400     18398     18401
     18401     18402     18401     18403     18403     18404     18403     18405
     18403     18406     18401     18407     18407     18408     18407     18409
     18407     18410     18431     18432     18431     18427     18431     18411
     18431     18436     18411     18412     18411     18413     18413     18414
     18411     18415     18415     18416     18415     18417     18417     18418
     18415     18419     18419     18420     18419     18421     18421     18422
     18419     18423     18423     18424     18423     18427     18427     18428
     18427     18429     18429     18430     18423     18425     18425     18426
     18436     18433     18433     18437     18433     18434     18433     18435
     18437     18438     18438     18439     18438     18440     18438     18441
     18441     18442     18441     18449     18441     18443     18449     18450
     18449     18451     18449     18452     18443     18444     18444     18446
     18444     18445     18446     18447     18446     18448     18446     18458
     18458     18459     18458     18460     18458     18461     18461     18462
     18461     18463     18461     18464     18464     18465     18464     18466
     18466     18467     18466     18468     18468     18469     18468     18470
     18468     18471     18471     18472     18471     18473     18473     18474
     18473     18475     18475     18476     18475     18477     18475     18478
     18478     18479     18478     18480     18480     18481     18480     18482
     18482     18483     18482     18484     18482     18485     18485     18486
     18485     18487     18487     18488     18487     18489     18489     18490
     18489     18491     18489     18492     18492     18493     18492     18494
     18492     18495     18495     18496     18495     18497     18495     18498
     18498     18499     18498     18500     18498     18501     18501     18502
     18501     18503     18501     18504     18452     18453     18453     18455
     18453     18454     18455     18456     18455     18457     18455     18505
     18505     18506     18505     18507     18505     18508     18508     18509
     18508     18510     18508     18511     18511     18512     18511     18513
     18511     18514     18514     18515     18514     18516     18514     18517
     18517     18518     18517     18519     18517     18520     18520     18521
     18520     18522     18520     18523     18523     18524     18523     18525
     18523     18526     18526     18527     18526     18528     18526     18529
     18529     18530     18529     18531     18529     18532     18532     18533
     18532     18534     18532     18535     18535     18536     18535     18537
     18535     18538     18538     18539     18538     18540     18538     18541
     18541     18542     18541     18543     18541     18544     18544     18545
     18544     18546     18544     18547     18547     18548     18547     18549
     18547     18550     18550     18551     18550     18552     18550     18553
     18629     18630     18629     18631     18629     18632     18629     18626
     18626     18627     18626     18628     18626     18623     18623     18624
     18623     18625     18623     18620     18620     18621     18620     18622
     18620     18617     18617     18618     18617     18619     18617     18614
     18614     18615     18614     18616     18614     18611     18611     18612
     18611     18613     18611     18608     18608     18609     18608     18610
     18608     18605     18605     18606     18605     18607     18605     18602
     18602     18603     18602     18604     18602     18599     18599     18600
     18599     18601     18599     18596     18596     18597     18596     18598
     18596     18593     18593     18594     18593     18595     18593     18591
     18591     18592     18589     18590     18589     18585     18585     18586
     18585     18587     18587     18588     18585     18583     18583     18584
     18583     18578     18578     18579     18578     18580     18578     18576
     18576     18573     18577     18573     18574     18573     18575     18573
     18577     18570     18570     18571     18570     18572     18570     18567
     18567     18568     18567     18569     18567     18554     18554     18563
     18554     18559     18554     18555     18563     18564     18563     18565
     18563     18566     18559     18560     18559     18561     18559     18562
     18555     18556     18555     18557     18555     18558     18583     18581
     18581     18582     18581     18633     18633     18635     18635     18636
     18635     18637     18635     18638     18638     18639     18638     18640
     18638     18641     18641     18642     18641     18643     18641     18644
     18644     18645     18644     18646     18644     18647     18647     18648
     18647     18649     18647     18650     18650     18651     18650     18652
     18650     18653     18653     18654     18653     18655     18653     18656
     18656     18657     18658     18659     18658     18660     18660     18661
     18660     18662     18660     18663     18663     18664     18663     18665
     18663     18666     18666     18667     18666     18668     18666     18669
     18669     18670     18669     18671     18669     18672     18672     18673
     18672     18674     18672     18675     18675     18676     18675     18677
     18675     18678     18678     18679     18678     18680     18678     18681
     18681     18682     18681     18683     18681     18684     18589     18591
     18656     18658     18633     18634     18685     18689     18685     18693
     18685     18697     18689     18690     18689     18691     18689     18692
     18693     18694     18693     18695     18693     18696     18697     18698
     18697     18699     18697     18700     18685     18686     18686     18687
     18686     18688     18686     18701     18701     18702     18701     18703
     18701     18707     18708     18709     18707     18704     18704     18708
     18704     18705     18704     18706     18709     18710     18709     18711
     18709     18712     18712     18713     18712     18720     18712     18714
     18720     18721     18720     18722     18720     18723     18714     18715
     18715     18717     18715     18716     18717     18718     18717     18719
     18717     18729     18729     18730     18729     18731     18729     18732
     18732     18733     18732     18734     18732     18735     18735     18736
     18735     18737     18737     18738     18737     18739     18739     18740
     18739     18741     18739     18742     18742     18743     18742     18744
     18744     18745     18744     18746     18746     18747     18746     18748
     18746     18749     18749     18750     18749     18751     18751     18752
     18751     18753     18753     18754     18753     18755     18753     18756
     18756     18757     18756     18758     18758     18759     18758     18760
     18760     18761     18760     18762     18760     18763     18763     18764
     18763     18765     18763     18766     18766     18767     18766     18768
     18766     18769     18769     18770     18769     18771     18769     18772
     18772     18773     18772     18774     18772     18775     18723     18724
     18724     18726     18724     18725     18726     18727     18726     18728
     18726     18776     18776     18777     18776     18778     18776     18779
     18779     18780     18779     18781     18779     18782     18782     18783
     18782     18784     18782     18785     18785     18786     18785     18787
     18785     18788     18788     18789     18788     18790     18788     18791
     18791     18792     18791     18793     18791     18794     18794     18795
     18794     18796     18794     18797     18797     18798     18797     18799
     18797     18800     18800     18801     18800     18802     18800     18803
     18803     18804     18803     18805     18803     18806     18806     18807
     18806     18808     18806     18809     18809     18810     18809     18811
     18809     18812     18812     18813     18812     18814     18812     18815
     18815     18816     18815     18817     18815     18818     18818     18819
     18818     18820     18818     18821     18821     18822     18821     18823
     18821     18824     18825     18827     18825     18826     18827     18828
     18825     18871     18871     18872     18871     18873     18871     18868
     18868     18869     18868     18870     18825     18829     18829     18830
     18829     18831     18829     18832     18832     18863     18863     18868
     18863     18864     18864     18865     18864     18866     18864     18867
     18832     18833     18833     18834     18833     18835     18835     18836
     18835     18837     18835     18838     18838     18839     18838     18861
     18861     18862     18861     18863     18838     18840     18840     18841
     18840     18850     18850     18855     18855     18856     18855     18857
     18855     18858     18858     18859     18858     18860     18858     18861
     18850     18851     18851     18852     18851     18853     18851     18854
     18840     18842     18842     18843     18842     18844     18842     18845
     18845     18846     18845     18847     18845     18848     18848     18849
     18848     18850     18848     18874     18874     18875     18874     18876
     18876     18877     18876     18878     18876     18879     18874     18880
     18880     18881     18880     18882     18880     18883     18883     18884
     18883     18885     18883     18886     18886     18887     18886     18888
     18886     18889     18889     18890     18889     18891     18891     18892
     18891     18893     18891     18894     18889     18895     18895     18896
     18895     18897     18895     18898     18899     18900     18899     18901
     18899     18902     18899     18903     18903     18904     18903     18905
     18903     18906     18906     18907     18906     18908     18906     18912
     18914     18913     18912     18909     18909     18913     18909     18910
     18909     18911     18914     18915     18914     18916     18914     18917
     18917     18918     18917     18925     18917     18919     18925     18926
     18925     18927     18925     18928     18919     18920     18920     18922
     18920     18921     18922     18923     18922     18924     18922     18934
     18934     18935     18934     18936     18934     18937     18937     18938
     18937     18939     18937     18940     18940     18941     18940     18942
     18940     18943     18943     18944     18943     18945     18943     18946
     18946     18947     18946     18948     18946     18949     18949     18950
     18949     18951     18949     18952     18952     18953     18952     18954
     18954     18955     18954     18956     18956     18957     18956     18958
     18956     18959     18959     18960     18959     18961     18959     18962
     18962     18963     18962     18964     18962     18965     18965     18966
     18965     18967     18965     18968     18968     18969     18968     18970
     18968     18971     18971     18972     18971     18973     18971     18974
     18974     18975     18974     18976     18974     18977     18977     18978
     18977     18979     18977     18980     18928     18929     18929     18931
     18929     18930     18931     18932     18931     18933     18931     18981
     18981     18982     18981     18983     18981     18984     18984     18985
     18984     18986     18984     18987     18987     18988     18987     18989
     18987     18990     18990     18991     18990     18992     18990     18993
     18993     18994     18993     18995     18993     18996     18996     18997
     18996     18998     18996     18999     18999     19000     18999     19001
     18999     19002     19002     19003     19002     19004     19002     19005
     19005     19006     19005     19007     19005     19008     19008     19009
     19008     19010     19008     19011     19011     19012     19011     19013
     19011     19014     19014     19015     19014     19016     19014     19017
     19017     19018     19017     19019     19017     19020     19020     19021
     19020     19022     19020     19023     19023     19024     19023     19025
     19023     19026     19026     19027     19026     19028     19026     19029
     19105     19106     19105     19107     19105     19108     19105     19102
     19102     19103     19102     19104     19102     19099     19099     19100
     19099     19101     19099     19096     19096     19097     19096     19098
     19096     19093     19093     19094     19093     19095     19093     19090
     19090     19091     19090     19092     19090     19087     19087     19088
     19087     19089     19087     19084     19084     19085     19084     19086
     19084     19081     19081     19082     19081     19083     19081     19078
     19078     19079     19078     19080     19078     19075     19075     19076
     19075     19077     19075     19072     19072     19073     19072     19074
     19072     19069     19069     19070     19069     19071     19069     19067
     19067     19068     19065     19066     19065     19061     19061     19062
     19061     19063     19063     19064     19061     19059     19059     19060
     19059     19054     19054     19055     19054     19056     19054     19052
     19052     19049     19053     19049     19050     19049     19051     19049
     19053     19046     19046     19047     19046     19048     19046     19043
     19043     19044     19043     19045     19043     19030     19030     19039
     19030     19035     19030     19031     19039     19040     19039     19041
     19039     19042     19035     19036     19035     19037     19035     19038
     19031     19032     19031     19033     19031     19034     19059     19057
     19057     19058     19057     19109     19109     19111     19111     19112
     19111     19113     19111     19114     19114     19115     19114     19116
     19114     19117     19117     19118     19117     19119     19117     19120
     19120     19121     19120     19122     19120     19123     19123     19124
     19123     19125     19123     19126     19126     19127     19126     19128
     19126     19129     19129     19130     19129     19131     19129     19132
     19132     19133     19134     19135     19134     19136     19136     19137
     19136     19138     19136     19139     19139     19140     19139     19141
     19139     19142     19142     19143     19142     19144     19142     19145
     19145     19146     19145     19147     19145     19148     19148     19149
     19148     19150     19148     19151     19151     19152     19151     19153
     19151     19154     19154     19155     19154     19156     19154     19157
     19157     19158     19157     19159     19157     19160     19065     19067
     19132     19134     19109     19110     19161     19162     19161     19163
     19161     19164     19161     19165     19165     19166     19165     19167
     19165     19168     19168     19169     19168     19170     19168     19174
     19176     19175     19174     19171     19171     19175     19171     19172
     19171     19173     19176     19177     19176     19178     19176     19179
     19179     19180     19179     19187     19179     19181     19187     19188
     19187     19189     19187     19190     19181     19182     19182     19184
     19182     19183     19184     19185     19184     19186     19184     19196
     19196     19197     19196     19198     19196     19199     19199     19200
     19199     19201     19199     19202     19202     19203     19202     19204
     19204     19205     19204     19206     19206     19207     19206     19208
     19206     19209     19209     19210     19209     19211     19211     19212
     19211     19213     19213     19214     19213     19215     19213     19216
     19216     19217     19216     19218     19218     19219     19218     19220
     19220     19221     19220     19222     19220     19223     19223     19224
     19223     19225     19225     19226     19225     19227     19227     19228
     19227     19229     19227     19230     19230     19231     19230     19232
     19230     19233     19233     19234     19233     19235     19233     19236
     19236     19237     19236     19238     19236     19239     19239     19240
     19239     19241     19239     19242     19190     19191     19191     19193
     19191     19192     19193     19194     19193     19195     19193     19243
     19243     19244     19243     19245     19243     19246     19246     19247
     19246     19248     19246     19249     19249     19250     19249     19251
     19249     19252     19252     19253     19252     19254     19252     19255
     19255     19256     19255     19257     19255     19258     19258     19259
     19258     19260     19258     19261     19261     19262     19261     19263
     19261     19264     19264     19265     19264     19266     19264     19267
     19267     19268     19267     19269     19267     19270     19270     19271
     19270     19272     19270     19273     19273     19274     19273     19275
     19273     19276     19276     19277     19276     19278     19276     19279
     19279     19280     19279     19281     19279     19282     19282     19283
     19282     19284     19282     19285     19285     19286     19285     19287
     19285     19288     19288     19289     19288     19290     19288     19291
     19292     19293     19292     19294     19292     19295     19292     19296
     19300     19298     19298     19296     19298     19299     19296     19297
     19296     19301     19309     19308     19301     19302     19301     19303
     19301     19307     19307     19304     19304     19308     19304     19305
     19304     19306     19309     19310     19309     19311     19309     19312
     19312     19313     19312     19320     19312     19314     19320     19321
     19320     19322     19320     19323     19314     19315     19315     19317
     19315     19316     19317     19318     19317     19319     19317     19329
     19329     19330     19329     19331     19329     19332     19332     19333
     19332     19334     19332     19335     19335     19336     19335     19337
     19337     19338     19337     19339     19339     19340     19339     19341
     19339     19342     19342     19343     19342     19344     19344     19345
     19344     19346     19346     19347     19346     19348     19346     19349
     19349     19350     19349     19351     19351     19352     19351     19353
     19353     19354     19353     19355     19353     19356     19356     19357
     19356     19358     19358     19359     19358     19360     19360     19361
     19360     19362     19360     19363     19363     19364     19363     19365
     19363     19366     19366     19367     19366     19368     19366     19369
     19369     19370     19369     19371     19369     19372     19372     19373
     19372     19374     19372     19375     19323     19324     19324     19326
     19324     19325     19326     19327     19326     19328     19326     19376
     19376     19377     19376     19378     19376     19379     19379     19380
     19379     19381     19379     19382     19382     19383     19382     19384
     19382     19385     19385     19386     19385     19387     19385     19388
     19388     19389     19388     19390     19388     19391     19391     19392
     19391     19393     19391     19394     19394     19395     19394     19396
     19394     19397     19397     19398     19397     19399     19397     19400
     19400     19401     19400     19402     19400     19403     19403     19404
     19403     19405     19403     19406     19406     19407     19406     19408
     19406     19409     19409     19410     19409     19411     19409     19412
     19412     19413     19412     19414     19412     19415     19415     19416
     19415     19417     19415     19418     19418     19419     19418     19420
     19418     19421     19421     19422     19421     19423     19421     19424
     19425     19426     19425     19427     19425     19428     19425     19429
     19429     19430     19429     19431     19429     19432     19432     19433
     19432     19434     19432     19438     19440     19439     19438     19435
     19435     19439     19435     19436     19435     19437     19440     19441
     19440     19442     19440     19443     19443     19444     19443     19451
     19443     19445     19451     19452     19451     19453     19451     19454
     19445     19446     19446     19448     19446     19447     19448     19449
     19448     19450     19448     19460     19460     19461     19460     19462
     19460     19463     19463     19464     19463     19465     19463     19466
     19466     19467     19466     19468     19468     19469     19468     19470
     19470     19471     19470     19472     19470     19473     19473     19474
     19473     19475     19475     19476     19475     19477     19477     19478
     19477     19479     19477     19480     19480     19481     19480     19482
     19482     19483     19482     19484     19484     19485     19484     19486
     19484     19487     19487     19488     19487     19489     19489     19490
     19489     19491     19491     19492     19491     19493     19491     19494
     19494     19495     19494     19496     19494     19497     19497     19498
     19497     19499     19497     19500     19500     19501     19500     19502
     19500     19503     19503     19504     19503     19505     19503     19506
     19454     19455     19455     19457     19455     19456     19457     19458
     19457     19459     19457     19507     19507     19508     19507     19509
     19507     19510     19510     19511     19510     19512     19510     19513
     19513     19514     19513     19515     19513     19516     19516     19517
     19516     19518     19516     19519     19519     19520     19519     19521
     19519     19522     19522     19523     19522     19524     19522     19525
     19525     19526     19525     19527     19525     19528     19528     19529
     19528     19530     19528     19531     19531     19532     19531     19533
     19531     19534     19534     19535     19534     19536     19534     19537
     19537     19538     19537     19539     19537     19540     19540     19541
     19540     19542     19540     19543     19543     19544     19543     19545
     19543     19546     19546     19547     19546     19548     19546     19549
     19549     19550     19549     19551     19549     19552     19552     19553
     19552     19554     19552     19555     19631     19632     19631     19633
     19631     19634     19631     19628     19628     19629     19628     19630
     19628     19625     19625     19626     19625     19627     19625     19622
     19622     19623     19622     19624     19622     19619     19619     19620
     19619     19621     19619     19616     19616     19617     19616     19618
     19616     19613     19613     19614     19613     19615     19613     19610
     19610     19611     19610     19612     19610     19607     19607     19608
     19607     19609     19607     19604     19604     19605     19604     19606
     19604     19601     19601     19602     19601     19603     19601     19598
     19598     19599     19598     19600     19598     19595     19595     19596
     19595     19597     19595     19593     19593     19594     19591     19592
     19591     19587     19587     19588     19587     19589     19589     19590
     19587     19585     19585     19586     19585     19580     19580     19581
     19580     19582     19580     19578     19578     19575     19579     19575
     19576     19575     19577     19575     19579     19572     19572     19573
     19572     19574     19572     19569     19569     19570     19569     19571
     19569     19556     19556     19565     19556     19561     19556     19557
     19565     19566     19565     19567     19565     19568     19561     19562
     19561     19563     19561     19564     19557     19558     19557     19559
     19557     19560     19585     19583     19583     19584     19583     19635
     19635     19637     19637     19638     19637     19639     19637     19640
     19640     19641     19640     19642     19640     19643     19643     19644
     19643     19645     19643     19646     19646     19647     19646     19648
     19646     19649     19649     19650     19649     19651     19649     19652
     19652     19653     19652     19654     19652     19655     19655     19656
     19655     19657     19655     19658     19658     19659     19660     19661
     19660     19662     19662     19663     19662     19664     19662     19665
     19665     19666     19665     19667     19665     19668     19668     19669
     19668     19670     19668     19671     19671     19672     19671     19673
     19671     19674     19674     19675     19674     19676     19674     19677
     19677     19678     19677     19679     19677     19680     19680     19681
     19680     19682     19680     19683     19683     19684     19683     19685
     19683     19686     19591     19593     19658     19660     19635     19636
     19687     19688     19687     19692     19687     19696     19688     19689
     19688     19690     19688     19691     19692     19693     19692     19694
     19692     19695     19696     19697     19696     19698     19696     19699
     19687     19700     19700     19701     19700     19702     19700     19703
     19703     19704     19703     19705     19703     19709     19710     19711
     19709     19706     19706     19710     19706     19707     19706     19708
     19711     19712     19711     19713     19711     19714     19714     19715
     19714     19722     19714     19716     19722     19723     19722     19724
     19722     19725     19716     19717     19717     19719     19717     19718
     19719     19720     19719     19721     19719     19731     19731     19732
     19731     19733     19731     19734     19734     19735     19734     19736
     19734     19737     19737     19738     19737     19739     19737     19740
     19740     19741     19740     19742     19740     19743     19743     19744
     19743     19745     19743     19746     19746     19747     19746     19748
     19746     19749     19749     19750     19749     19751     19751     19752
     19751     19753     19753     19754     19753     19755     19753     19756
     19756     19757     19756     19758     19758     19759     19758     19760
     19760     19761     19760     19762     19760     19763     19763     19764
     19763     19765     19763     19766     19766     19767     19766     19768
     19766     19769     19769     19770     19769     19771     19769     19772
     19772     19773     19772     19774     19772     19775     19725     19726
     19726     19728     19726     19727     19728     19729     19728     19730
     19728     19776     19776     19777     19776     19778     19776     19779
     19779     19780     19779     19781     19779     19782     19782     19783
     19782     19784     19782     19785     19785     19786     19785     19787
     19785     19788     19788     19789     19788     19790     19788     19791
     19791     19792     19791     19793     19791     19794     19794     19795
     19794     19796     19794     19797     19797     19798     19797     19799
     19797     19800     19800     19801     19800     19802     19800     19803
     19803     19804     19803     19805     19803     19806     19806     19807
     19806     19808     19806     19809     19809     19810     19809     19811
     19809     19812     19812     19813     19812     19814     19812     19815
     19815     19816     19815     19817     19815     19818     19818     19819
     19818     19820     19818     19821     19821     19822     19821     19823
     19821     19824     19825     19827     19825     19826     19827     19828
     19825     19871     19871     19872     19871     19873     19871     19868
     19868     19869     19868     19870     19825     19829     19829     19830
     19829     19831     19829     19832     19832     19863     19863     19868
     19863     19864     19864     19865     19864     19866     19864     19867
     19832     19833     19833     19834     19833     19835     19835     19836
     19835     19837     19835     19838     19838     19839     19838     19861
     19861     19862     19861     19863     19838     19840     19840     19841
     19840     19850     19850     19855     19855     19856     19855     19857
     19855     19858     19858     19859     19858     19860     19858     19861
     19850     19851     19851     19852     19851     19853     19851     19854
     19840     19842     19842     19843     19842     19844     19842     19845
     19845     19846     19845     19847     19845     19848     19848     19849
     19848     19850     19848     19874     19874     19875     19874     19876
     19876     19877     19876     19878     19876     19879     19874     19880
     19880     19881     19880     19882     19880     19883     19883     19884
     19883     19885     19883     19886     19886     19887     19886     19888
     19886     19889     19889     19890     19889     19891     19891     19892
     19891     19893     19891     19894     19889     19895     19895     19896
     19895     19897     19895     19898     19899     19903     19899     19907
     19899     19911     19903     19904     19903     19905     19903     19906
     19907     19908     19907     19909     19907     19910     19911     19912
     19911     19913     19911     19914     19899     19900     19900     19901
     19900     19902     19900     19915     19915     19916     19915     19917
     19915     19921     19922     19923     19921     19918     19918     19922
     19918     19919     19918     19920     19923     19924     19923     19925
     19923     19926     19926     19927     19926     19934     19926     19928
     19934     19935     19934     19936     19934     19937     19928     19929
     19929     19931     19929     19930     19931     19932     19931     19933
     19931     19943     19943     19944     19943     19945     19943     19946
     19946     19947     19946     19948     19946     19949     19949     19950
     19949     19951     19949     19952     19952     19953     19952     19954
     19952     19955     19955     19956     19955     19957     19955     19958
     19958     19959     19958     19960     19958     19961     19961     19962
     19961     19963     19963     19964     19963     19965     19965     19966
     19965     19967     19965     19968     19968     19969     19968     19970
     19968     19971     19971     19972     19971     19973     19971     19974
     19974     19975     19974     19976     19974     19977     19977     19978
     19977     19979     19977     19980     19980     19981     19980     19982
     19980     19983     19983     19984     19983     19985     19983     19986
     19986     19987     19986     19988     19986     19989     19937     19938
     19938     19940     19938     19939     19940     19941     19940     19942
     19940     19990     19990     19991     19990     19992     19990     19993
     19993     19994     19993     19995     19993     19996     19996     19997
     19996     19998     19996     19999     19999     20000     19999     20001
     19999     20002     20002     20003     20002     20004     20002     20005
     20005     20006     20005     20007     20005     20008     20008     20009
     20008     20010     20008     20011     20011     20012     20011     20013
     20011     20014     20014     20015     20014     20016     20014     20017
     20017     20018     20017     20019     20017     20020     20020     20021
     20020     20022     20020     20023     20023     20024     20023     20025
     20023     20026     20026     20027     20026     20028     20026     20029
     20029     20030     20029     20031     20029     20032     20033     20035
     20033     20034     20035     20036     20033     20079     20079     20080
     20079     20081     20079     20076     20076     20077     20076     20078
     20033     20037     20037     20038     20037     20039     20037     20040
     20040     20071     20071     20076     20071     20072     20072     20073
     20072     20074     20072     20075     20040     20041     20041     20042
     20041     20043     20043     20044     20043     20045     20043     20046
     20046     20047     20046     20069     20069     20070     20069     20071
     20046     20048     20048     20049     20048     20058     20058     20063
     20063     20064     20063     20065     20063     20066     20066     20067
     20066     20068     20066     20069     20058     20059     20059     20060
     20059     20061     20059     20062     20048     20050     20050     20051
     20050     20052     20050     20053     20053     20054     20053     20055
     20053     20056     20056     20057     20056     20058     20056     20082
     20082     20083     20082     20084     20084     20085     20084     20086
     20084     20087     20082     20088     20088     20089     20088     20090
     20088     20091     20091     20092     20091     20093     20091     20094
     20094     20095     20094     20096     20094     20097     20097     20098
     20097     20099     20099     20100     20099     20101     20099     20102
     20097     20103     20103     20104     20103     20105     20103     20106
     20107     20111     20107     20115     20107     20119     20111     20112
     20111     20113     20111     20114     20115     20116     20115     20117
     20115     20118     20119     20120     20119     20121     20119     20122
     20107     20108     20108     20109     20108     20110     20108     20123
     20123     20124     20123     20125     20123     20129     20130     20131
     20129     20126     20126     20130     20126     20127     20126     20128
     20131     20132     20131     20133     20131     20134     20134     20135
     20134     20142     20134     20136     20142     20143     20142     20144
     20142     20145     20136     20137     20137     20139     20137     20138
     20139     20140     20139     20141     20139     20151     20151     20152
     20151     20153     20151     20154     20154     20155     20154     20156
     20154     20157     20157     20158     20157     20159     20159     20160
     20159     20161     20161     20162     20161     20163     20161     20164
     20164     20165     20164     20166     20166     20167     20166     20168
     20168     20169     20168     20170     20168     20171     20171     20172
     20171     20173     20173     20174     20173     20175     20175     20176
     20175     20177     20175     20178     20178     20179     20178     20180
     20180     20181     20180     20182     20182     20183     20182     20184
     20182     20185     20185     20186     20185     20187     20185     20188
     20188     20189     20188     20190     20188     20191     20191     20192
     20191     20193     20191     20194     20194     20195     20194     20196
     20194     20197     20145     20146     20146     20148     20146     20147
     20148     20149     20148     20150     20148     20198     20198     20199
     20198     20200     20198     20201     20201     20202     20201     20203
     20201     20204     20204     20205     20204     20206     20204     20207
     20207     20208     20207     20209     20207     20210     20210     20211
     20210     20212     20210     20213     20213     20214     20213     20215
     20213     20216     20216     20217     20216     20218     20216     20219
     20219     20220     20219     20221     20219     20222     20222     20223
     20222     20224     20222     20225     20225     20226     20225     20227
     20225     20228     20228     20229     20228     20230     20228     20231
     20231     20232     20231     20233     20231     20234     20234     20235
     20234     20236     20234     20237     20237     20238     20237     20239
     20237     20240     20240     20241     20240     20242     20240     20243
     20243     20244     20243     20245     20243     20246     20247     20248
     20247     20249     20247     20250     20247     20251     20251     20252
     20251     20253     20251     20254     20254     20255     20254     20256
     20254     20260     20262     20261     20260     20257     20257     20261
     20257     20258     20257     20259     20262     20263     20262     20264
     20262     20265     20265     20266     20265     20273     20265     20267
     20273     20274     20273     20275     20273     20276     20267     20268
     20268     20270     20268     20269     20270     20271     20270     20272
     20270     20282     20282     20283     20282     20284     20282     20285
     20285     20286     20285     20287     20285     20288     20288     20289
     20288     20290     20290     20291     20290     20292     20292     20293
     20292     20294     20292     20295     20295     20296     20295     20297
     20297     20298     20297     20299     20299     20300     20299     20301
     20299     20302     20302     20303     20302     20304     20304     20305
     20304     20306     20306     20307     20306     20308     20306     20309
     20309     20310     20309     20311     20311     20312     20311     20313
     20313     20314     20313     20315     20313     20316     20316     20317
     20316     20318     20316     20319     20319     20320     20319     20321
     20319     20322     20322     20323     20322     20324     20322     20325
     20325     20326     20325     20327     20325     20328     20276     20277
     20277     20279     20277     20278     20279     20280     20279     20281
     20279     20329     20329     20330     20329     20331     20329     20332
     20332     20333     20332     20334     20332     20335     20335     20336
     20335     20337     20335     20338     20338     20339     20338     20340
     20338     20341     20341     20342     20341     20343     20341     20344
     20344     20345     20344     20346     20344     20347     20347     20348
     20347     20349     20347     20350     20350     20351     20350     20352
     20350     20353     20353     20354     20353     20355     20353     20356
     20356     20357     20356     20358     20356     20359     20359     20360
     20359     20361     20359     20362     20362     20363     20362     20364
     20362     20365     20365     20366     20365     20367     20365     20368
     20368     20369     20368     20370     20368     20371     20371     20372
     20371     20373     20371     20374     20374     20375     20374     20376
     20374     20377     20453     20454     20453     20455     20453     20456
     20453     20450     20450     20451     20450     20452     20450     20447
     20447     20448     20447     20449     20447     20444     20444     20445
     20444     20446     20444     20441     20441     20442     20441     20443
     20441     20438     20438     20439     20438     20440     20438     20435
     20435     20436     20435     20437     20435     20432     20432     20433
     20432     20434     20432     20429     20429     20430     20429     20431
     20429     20426     20426     20427     20426     20428     20426     20423
     20423     20424     20423     20425     20423     20420     20420     20421
     20420     20422     20420     20417     20417     20418     20417     20419
     20417     20415     20415     20416     20413     20414     20413     20409
     20409     20410     20409     20411     20411     20412     20409     20407
     20407     20408     20407     20402     20402     20403     20402     20404
     20402     20400     20400     20397     20401     20397     20398     20397
     20399     20397     20401     20394     20394     20395     20394     20396
     20394     20391     20391     20392     20391     20393     20391     20378
     20378     20387     20378     20383     20378     20379     20387     20388
     20387     20389     20387     20390     20383     20384     20383     20385
     20383     20386     20379     20380     20379     20381     20379     20382
     20407     20405     20405     20406     20405     20457     20457     20459
     20459     20460     20459     20461     20459     20462     20462     20463
     20462     20464     20462     20465     20465     20466     20465     20467
     20465     20468     20468     20469     20468     20470     20468     20471
     20471     20472     20471     20473     20471     20474     20474     20475
     20474     20476     20474     20477     20477     20478     20477     20479
     20477     20480     20480     20481     20482     20483     20482     20484
     20484     20485     20484     20486     20484     20487     20487     20488
     20487     20489     20487     20490     20490     20491     20490     20492
     20490     20493     20493     20494     20493     20495     20493     20496
     20496     20497     20496     20498     20496     20499     20499     20500
     20499     20501     20499     20502     20502     20503     20502     20504
     20502     20505     20505     20506     20505     20507     20505     20508
     20413     20415     20480     20482     20457     20458     20509     20510
     20509     20511     20509     20512     20509     20513     20513     20514
     20513     20515     20513     20516     20516     20517     20516     20518
     20516     20522     20524     20523     20522     20519     20519     20523
     20519     20520     20519     20521     20524     20525     20524     20526
     20524     20527     20527     20528     20527     20535     20527     20529
     20535     20536     20535     20537     20535     20538     20529     20530
     20530     20532     20530     20531     20532     20533     20532     20534
     20532     20544     20544     20545     20544     20546     20544     20547
     20547     20548     20547     20549     20547     20550     20550     20551
     20550     20552     20550     20553     20553     20554     20553     20555
     20553     20556     20556     20557     20556     20558     20556     20559
     20559     20560     20559     20561     20559     20562     20562     20563
     20562     20564     20564     20565     20564     20566     20566     20567
     20566     20568     20566     20569     20569     20570     20569     20571
     20569     20572     20572     20573     20572     20574     20572     20575
     20575     20576     20575     20577     20575     20578     20578     20579
     20578     20580     20578     20581     20581     20582     20581     20583
     20581     20584     20584     20585     20584     20586     20584     20587
     20587     20588     20587     20589     20587     20590     20538     20539
     20539     20541     20539     20540     20541     20542     20541     20543
     20541     20591     20591     20592     20591     20593     20591     20594
     20594     20595     20594     20596     20594     20597     20597     20598
     20597     20599     20597     20600     20600     20601     20600     20602
     20600     20603     20603     20604     20603     20605     20603     20606
     20606     20607     20606     20608     20606     20609     20609     20610
     20609     20611     20609     20612     20612     20613     20612     20614
     20612     20615     20615     20616     20615     20617     20615     20618
     20618     20619     20618     20620     20618     20621     20621     20622
     20621     20623     20621     20624     20624     20625     20624     20626
     20624     20627     20627     20628     20627     20629     20627     20630
     20630     20631     20630     20632     20630     20633     20633     20634
     20633     20635     20633     20636     20636     20637     20636     20638
     20636     20639     20640     20641     20640     20645     20640     20649
     20641     20642     20641     20643     20641     20644     20645     20646
     20645     20647     20645     20648     20649     20650     20649     20651
     20649     20652     20640     20653     20653     20654     20653     20655
     20653     20656     20656     20657     20656     20658     20656     20662
     20663     20664     20662     20659     20659     20663     20659     20660
     20659     20661     20664     20665     20664     20666     20664     20667
     20667     20668     20667     20675     20667     20669     20675     20676
     20675     20677     20675     20678     20669     20670     20670     20672
     20670     20671     20672     20673     20672     20674     20672     20684
     20684     20685     20684     20686     20684     20687     20687     20688
     20687     20689     20687     20690     20690     20691     20690     20692
     20690     20693     20693     20694     20693     20695     20693     20696
     20696     20697     20696     20698     20696     20699     20699     20700
     20699     20701     20699     20702     20702     20703     20702     20704
     20704     20705     20704     20706     20706     20707     20706     20708
     20706     20709     20709     20710     20709     20711     20711     20712
     20711     20713     20713     20714     20713     20715     20713     20716
     20716     20717     20716     20718     20716     20719     20719     20720
     20719     20721     20719     20722     20722     20723     20722     20724
     20722     20725     20725     20726     20725     20727     20725     20728
     20678     20679     20679     20681     20679     20680     20681     20682
     20681     20683     20681     20729     20729     20730     20729     20731
     20729     20732     20732     20733     20732     20734     20732     20735
     20735     20736     20735     20737     20735     20738     20738     20739
     20738     20740     20738     20741     20741     20742     20741     20743
     20741     20744     20744     20745     20744     20746     20744     20747
     20747     20748     20747     20749     20747     20750     20750     20751
     20750     20752     20750     20753     20753     20754     20753     20755
     20753     20756     20756     20757     20756     20758     20756     20759
     20759     20760     20759     20761     20759     20762     20762     20763
     20762     20764     20762     20765     20765     20766     20765     20767
     20765     20768     20768     20769     20768     20770     20768     20771
     20771     20772     20771     20773     20771     20774     20774     20775
     20774     20776     20774     20777     20778     20780     20778     20779
     20780     20781     20778     20824     20824     20825     20824     20826
     20824     20821     20821     20822     20821     20823     20778     20782
     20782     20783     20782     20784     20782     20785     20785     20816
     20816     20821     20816     20817     20817     20818     20817     20819
     20817     20820     20785     20786     20786     20787     20786     20788
     20788     20789     20788     20790     20788     20791     20791     20792
     20791     20814     20814     20815     20814     20816     20791     20793
     20793     20794     20793     20803     20803     20808     20808     20809
     20808     20810     20808     20811     20811     20812     20811     20813
     20811     20814     20803     20804     20804     20805     20804     20806
     20804     20807     20793     20795     20795     20796     20795     20797
     20795     20798     20798     20799     20798     20800     20798     20801
     20801     20802     20801     20803     20801     20827     20827     20828
     20827     20829     20829     20830     20829     20831     20829     20832
     20827     20833     20833     20834     20833     20835     20833     20836
     20836     20837     20836     20838     20836     20839     20839     20840
     20839     20841     20839     20842     20842     20843     20842     20844
     20844     20845     20844     20846     20844     20847     20842     20848
     20848     20849     20848     20850     20848     20851     20852     20853
     20852     20854     20852     20855     20852     20856     20856     20857
     20856     20858     20856     20859     20859     20860     20859     20861
     20859     20865     20867     20866     20865     20862     20862     20866
     20862     20863     20862     20864     20867     20868     20867     20869
     20867     20870     20870     20871     20870     20878     20870     20872
     20878     20879     20878     20880     20878     20881     20872     20873
     20873     20875     20873     20874     20875     20876     20875     20877
     20875     20887     20887     20888     20887     20889     20887     20890
     20890     20891     20890     20892     20890     20893     20893     20894
     20893     20895     20895     20896     20895     20897     20897     20898
     20897     20899     20897     20900     20900     20901     20900     20902
     20902     20903     20902     20904     20904     20905     20904     20906
     20904     20907     20907     20908     20907     20909     20909     20910
     20909     20911     20911     20912     20911     20913     20911     20914
     20914     20915     20914     20916     20916     20917     20916     20918
     20918     20919     20918     20920     20918     20921     20921     20922
     20921     20923     20921     20924     20924     20925     20924     20926
     20924     20927     20927     20928     20927     20929     20927     20930
     20930     20931     20930     20932     20930     20933     20881     20882
     20882     20884     20882     20883     20884     20885     20884     20886
     20884     20934     20934     20935     20934     20936     20934     20937
     20937     20938     20937     20939     20937     20940     20940     20941
     20940     20942     20940     20943     20943     20944     20943     20945
     20943     20946     20946     20947     20946     20948     20946     20949
     20949     20950     20949     20951     20949     20952     20952     20953
     20952     20954     20952     20955     20955     20956     20955     20957
     20955     20958     20958     20959     20958     20960     20958     20961
     20961     20962     20961     20963     20961     20964     20964     20965
     20964     20966     20964     20967     20967     20968     20967     20969
     20967     20970     20970     20971     20970     20972     20970     20973
     20973     20974     20973     20975     20973     20976     20976     20977
     20976     20978     20976     20979     20979     20980     20979     20981
     20979     20982     20983     20984     20983     20985     20983     20986
     20983     20987     20987     20988     20987     20989     20987     20990
     20990     20991     20990     20992     20990     20996     20998     20997
     20996     20993     20993     20997     20993     20994     20993     20995
     20998     20999     20998     21000     20998     21001     21001     21002
     21001     21009     21001     21003     21009     21010     21009     21011
     21009     21012     21003     21004     21004     21006     21004     21005
     21006     21007     21006     21008     21006     21018     21018     21019
     21018     21020     21018     21021     21021     21022     21021     21023
     21021     21024     21024     21025     21024     21026     21026     21027
     21026     21028     21028     21029     21028     21030     21028     21031
     21031     21032     21031     21033     21033     21034     21033     21035
     21035     21036     21035     21037     21035     21038     21038     21039
     21038     21040     21040     21041     21040     21042     21042     21043
     21042     21044     21042     21045     21045     21046     21045     21047
     21047     21048     21047     21049     21049     21050     21049     21051
     21049     21052     21052     21053     21052     21054     21052     21055
     21055     21056     21055     21057     21055     21058     21058     21059
     21058     21060     21058     21061     21061     21062     21061     21063
     21061     21064     21012     21013     21013     21015     21013     21014
     21015     21016     21015     21017     21015     21065     21065     21066
     21065     21067     21065     21068     21068     21069     21068     21070
     21068     21071     21071     21072     21071     21073     21071     21074
     21074     21075     21074     21076     21074     21077     21077     21078
     21077     21079     21077     21080     21080     21081     21080     21082
     21080     21083     21083     21084     21083     21085     21083     21086
     21086     21087     21086     21088     21086     21089     21089     21090
     21089     21091     21089     21092     21092     21093     21092     21094
     21092     21095     21095     21096     21095     21097     21095     21098
     21098     21099     21098     21100     21098     21101     21101     21102
     21101     21103     21101     21104     21104     21105     21104     21106
     21104     21107     21107     21108     21107     21109     21107     21110
     21110     21111     21110     21112     21110     21113     21114     21116
     21114     21115     21116     21117     21114     21160     21160     21161
     21160     21162     21160     21157     21157     21158     21157     21159
     21114     21118     21118     21119     21118     21120     21118     21121
     21121     21152     21152     21157     21152     21153     21153     21154
     21153     21155     21153     21156     21121     21122     21122     21123
     21122     21124     21124     21125     21124     21126     21124     21127
     21127     21128     21127     21150     21150     21151     21150     21152
     21127     21129     21129     21130     21129     21139     21139     21144
     21144     21145     21144     21146     21144     21147     21147     21148
     21147     21149     21147     21150     21139     21140     21140     21141
     21140     21142     21140     21143     21129     21131     21131     21132
     21131     21133     21131     21134     21134     21135     21134     21136
     21134     21137     21137     21138     21137     21139     21137     21163
     21163     21164     21163     21165     21165     21166     21165     21167
     21165     21168     21163     21169     21169     21170     21169     21171
     21169     21172     21172     21173     21172     21174     21172     21175
     21175     21176     21175     21177     21175     21178     21178     21179
     21178     21180     21180     21181     21180     21182     21180     21183
     21178     21184     21184     21185     21184     21186     21184     21187
     21188     21189     21188     21190     21188     21191     21188     21192
     21192     21193     21192     21194     21192     21195     21195     21196
     21195     21197     21195     21201     21203     21202     21201     21198
     21198     21202     21198     21199     21198     21200     21203     21204
     21203     21205     21203     21206     21206     21207     21206     21214
     21206     21208     21214     21215     21214     21216     21214     21217
     21208     21209     21209     21211     21209     21210     21211     21212
     21211     21213     21211     21223     21223     21224     21223     21225
     21223     21226     21226     21227     21226     21228     21226     21229
     21229     21230     21229     21231     21231     21232     21231     21233
     21233     21234     21233     21235     21233     21236     21236     21237
     21236     21238     21238     21239     21238     21240     21240     21241
     21240     21242     21240     21243     21243     21244     21243     21245
     21245     21246     21245     21247     21247     21248     21247     21249
     21247     21250     21250     21251     21250     21252     21252     21253
     21252     21254     21254     21255     21254     21256     21254     21257
     21257     21258     21257     21259     21257     21260     21260     21261
     21260     21262     21260     21263     21263     21264     21263     21265
     21263     21266     21266     21267     21266     21268     21266     21269
     21217     21218     21218     21220     21218     21219     21220     21221
     21220     21222     21220     21270     21270     21271     21270     21272
     21270     21273     21273     21274     21273     21275     21273     21276
     21276     21277     21276     21278     21276     21279     21279     21280
     21279     21281     21279     21282     21282     21283     21282     21284
     21282     21285     21285     21286     21285     21287     21285     21288
     21288     21289     21288     21290     21288     21291     21291     21292
     21291     21293     21291     21294     21294     21295     21294     21296
     21294     21297     21297     21298     21297     21299     21297     21300
     21300     21301     21300     21302     21300     21303     21303     21304
     21303     21305     21303     21306     21306     21307     21306     21308
     21306     21309     21309     21310     21309     21311     21309     21312
     21312     21313     21312     21314     21312     21315     21315     21316
     21315     21317     21315     21318     21394     21395     21394     21396
     21394     21397     21394     21391     21391     21392     21391     21393
     21391     21388     21388     21389     21388     21390     21388     21385
     21385     21386     21385     21387     21385     21382     21382     21383
     21382     21384     21382     21379     21379     21380     21379     21381
     21379     21376     21376     21377     21376     21378     21376     21373
     21373     21374     21373     21375     21373     21370     21370     21371
     21370     21372     21370     21367     21367     21368     21367     21369
     21367     21364     21364     21365     21364     21366     21364     21361
     21361     21362     21361     21363     21361     21358     21358     21359
     21358     21360     21358     21356     21356     21357     21354     21355
     21354     21350     21350     21351     21350     21352     21352     21353
     21350     21348     21348     21349     21348     21343     21343     21344
     21343     21345     21343     21341     21341     21338     21342     21338
     21339     21338     21340     21338     21342     21335     21335     21336
     21335     21337     21335     21332     21332     21333     21332     21334
     21332     21319     21319     21328     21319     21324     21319     21320
     21328     21329     21328     21330     21328     21331     21324     21325
     21324     21326     21324     21327     21320     21321     21320     21322
     21320     21323     21348     21346     21346     21347     21346     21398
     21398     21400     21400     21401     21400     21402     21400     21403
     21403     21404     21403     21405     21403     21406     21406     21407
     21406     21408     21406     21409     21409     21410     21409     21411
     21409     21412     21412     21413     21412     21414     21412     21415
     21415     21416     21415     21417     21415     21418     21418     21419
     21418     21420     21418     21421     21421     21422     21423     21424
     21423     21425     21425     21426     21425     21427     21425     21428
     21428     21429     21428     21430     21428     21431     21431     21432
     21431     21433     21431     21434     21434     21435     21434     21436
     21434     21437     21437     21438     21437     21439     21437     21440
     21440     21441     21440     21442     21440     21443     21443     21444
     21443     21445     21443     21446     21446     21447     21446     21448
     21446     21449     21354     21356     21421     21423     21398     21399
     21450     21451     21450     21452     21450     21453     21450     21454
     21458     21456     21456     21454     21456     21457     21454     21455
     21454     21459     21467     21466     21459     21460     21459     21461
     21459     21465     21465     21462     21462     21466     21462     21463
     21462     21464     21467     21468     21467     21469     21467     21470
     21470     21471     21470     21478     21470     21472     21478     21479
     21478     21480     21478     21481     21472     21473     21473     21475
     21473     21474     21475     21476     21475     21477     21475     21487
     21487     21488     21487     21489     21487     21490     21490     21491
     21490     21492     21490     21493     21493     21494     21493     21495
     21495     21496     21495     21497     21497     21498     21497     21499
     21497     21500     21500     21501     21500     21502     21502     21503
     21502     21504     21504     21505     21504     21506     21504     21507
     21507     21508     21507     21509     21509     21510     21509     21511
     21511     21512     21511     21513     21511     21514     21514     21515
     21514     21516     21516     21517     21516     21518     21518     21519
     21518     21520     21518     21521     21521     21522     21521     21523
     21521     21524     21524     21525     21524     21526     21524     21527
     21527     21528     21527     21529     21527     21530     21530     21531
     21530     21532     21530     21533     21481     21482     21482     21484
     21482     21483     21484     21485     21484     21486     21484     21534
     21534     21535     21534     21536     21534     21537     21537     21538
     21537     21539     21537     21540     21540     21541     21540     21542
     21540     21543     21543     21544     21543     21545     21543     21546
     21546     21547     21546     21548     21546     21549     21549     21550
     21549     21551     21549     21552     21552     21553     21552     21554
     21552     21555     21555     21556     21555     21557     21555     21558
     21558     21559     21558     21560     21558     21561     21561     21562
     21561     21563     21561     21564     21564     21565     21564     21566
     21564     21567     21567     21568     21567     21569     21567     21570
     21570     21571     21570     21572     21570     21573     21573     21574
     21573     21575     21573     21576     21576     21577     21576     21578
     21576     21579     21579     21580     21579     21581     21579     21582
     21658     21659     21658     21660     21658     21661     21658     21655
     21655     21656     21655     21657     21655     21652     21652     21653
     21652     21654     21652     21649     21649     21650     21649     21651
     21649     21646     21646     21647     21646     21648     21646     21643
     21643     21644     21643     21645     21643     21640     21640     21641
     21640     21642     21640     21637     21637     21638     21637     21639
     21637     21634     21634     21635     21634     21636     21634     21631
     21631     21632     21631     21633     21631     21628     21628     21629
     21628     21630     21628     21625     21625     21626     21625     21627
     21625     21622     21622     21623     21622     21624     21622     21620
     21620     21621     21618     21619     21618     21614     21614     21615
     21614     21616     21616     21617     21614     21612     21612     21613
     21612     21607     21607     21608     21607     21609     21607     21605
     21605     21602     21606     21602     21603     21602     21604     21602
     21606     21599     21599     21600     21599     21601     21599     21596
     21596     21597     21596     21598     21596     21583     21583     21592
     21583     21588     21583     21584     21592     21593     21592     21594
     21592     21595     21588     21589     21588     21590     21588     21591
     21584     21585     21584     21586     21584     21587     21612     21610
     21610     21611     21610     21662     21662     21664     21664     21665
     21664     21666     21664     21667     21667     21668     21667     21669
     21667     21670     21670     21671     21670     21672     21670     21673
     21673     21674     21673     21675     21673     21676     21676     21677
     21676     21678     21676     21679     21679     21680     21679     21681
     21679     21682     21682     21683     21682     21684     21682     21685
     21685     21686     21687     21688     21687     21689     21689     21690
     21689     21691     21689     21692     21692     21693     21692     21694
     21692     21695     21695     21696     21695     21697     21695     21698
     21698     21699     21698     21700     21698     21701     21701     21702
     21701     21703     21701     21704     21704     21705     21704     21706
     21704     21707     21707     21708     21707     21709     21707     21710
     21710     21711     21710     21712     21710     21713     21618     21620
     21685     21687     21662     21663     21789     21790     21789     21791
     21789     21792     21789     21786     21786     21787     21786     21788
     21786     21783     21783     21784     21783     21785     21783     21780
     21780     21781     21780     21782     21780     21777     21777     21778
     21777     21779     21777     21774     21774     21775     21774     21776
     21774     21771     21771     21772     21771     21773     21771     21768
     21768     21769     21768     21770     21768     21765     21765     21766
     21765     21767     21765     21762     21762     21763     21762     21764
     21762     21759     21759     21760     21759     21761     21759     21756
     21756     21757     21756     21758     21756     21753     21753     21754
     21753     21755     21753     21751     21751     21752     21749     21750
     21749     21745     21745     21746     21745     21747     21747     21748
     21745     21743     21743     21744     21743     21738     21738     21739
     21738     21740     21738     21736     21736     21733     21737     21733
     21734     21733     21735     21733     21737     21730     21730     21731
     21730     21732     21730     21727     21727     21728     21727     21729
     21727     21714     21714     21723     21714     21719     21714     21715
     21723     21724     21723     21725     21723     21726     21719     21720
     21719     21721     21719     21722     21715     21716     21715     21717
     21715     21718     21743     21741     21741     21742     21741     21793
     21793     21795     21795     21796     21795     21797     21795     21798
     21798     21799     21798     21800     21798     21801     21801     21802
     21801     21803     21801     21804     21804     21805     21804     21806
     21804     21807     21807     21808     21807     21809     21807     21810
     21810     21811     21810     21812     21810     21813     21813     21814
     21813     21815     21813     21816     21816     21817     21818     21819
     21818     21820     21820     21821     21820     21822     21820     21823
     21823     21824     21823     21825     21823     21826     21826     21827
     21826     21828     21826     21829     21829     21830     21829     21831
     21829     21832     21832     21833     21832     21834     21832     21835
     21835     21836     21835     21837     21835     21838     21838     21839
     21838     21840     21838     21841     21841     21842     21841     21843
     21841     21844     21749     21751     21816     21818     21793     21794
     21920     21921     21920     21922     21920     21923     21920     21917
     21917     21918     21917     21919     21917     21914     21914     21915
     21914     21916     21914     21911     21911     21912     21911     21913
     21911     21908     21908     21909     21908     21910     21908     21905
     21905     21906     21905     21907     21905     21902     21902     21903
     21902     21904     21902     21899     21899     21900     21899     21901
     21899     21896     21896     21897     21896     21898     21896     21893
     21893     21894     21893     21895     21893     21890     21890     21891
     21890     21892     21890     21887     21887     21888     21887     21889
     21887     21884     21884     21885     21884     21886     21884     21882
     21882     21883     21880     21881     21880     21876     21876     21877
     21876     21878     21878     21879     21876     21874     21874     21875
     21874     21869     21869     21870     21869     21871     21869     21867
     21867     21864     21868     21864     21865     21864     21866     21864
     21868     21861     21861     21862     21861     21863     21861     21858
     21858     21859     21858     21860     21858     21845     21845     21854
     21845     21850     21845     21846     21854     21855     21854     21856
     21854     21857     21850     21851     21850     21852     21850     21853
     21846     21847     21846     21848     21846     21849     21874     21872
     21872     21873     21872     21924     21924     21926     21926     21927
     21926     21928     21926     21929     21929     21930     21929     21931
     21929     21932     21932     21933     21932     21934     21932     21935
     21935     21936     21935     21937     21935     21938     21938     21939
     21938     21940     21938     21941     21941     21942     21941     21943
     21941     21944     21944     21945     21944     21946     21944     21947
     21947     21948     21949     21950     21949     21951     21951     21952
     21951     21953     21951     21954     21954     21955     21954     21956
     21954     21957     21957     21958     21957     21959     21957     21960
     21960     21961     21960     21962     21960     21963     21963     21964
     21963     21965     21963     21966     21966     21967     21966     21968
     21966     21969     21969     21970     21969     21971     21969     21972
     21972     21973     21972     21974     21972     21975     21880     21882
     21947     21949     21924     21925     21976     21980     21976     21984
     21976     21988     21980     21981     21980     21982     21980     21983
     21984     21985     21984     21986     21984     21987     21988     21989
     21988     21990     21988     21991     21976     21977     21977     21978
     21977     21979     21977     21992     21992     21993     21992     21994
     21992     21998     21999     22000     21998     21995     21995     21999
     21995     21996     21995     21997     22000     22001     22000     22002
     22000     22003     22003     22004     22003     22011     22003     22005
     22011     22012     22011     22013     22011     22014     22005     22006
     22006     22008     22006     22007     22008     22009     22008     22010
     22008     22020     22020     22021     22020     22022     22020     22023
     22023     22024     22023     22025     22023     22026     22026     22027
     22026     22028     22028     22029     22028     22030     22030     22031
     22030     22032     22030     22033     22033     22034     22033     22035
     22035     22036     22035     22037     22037     22038     22037     22039
     22037     22040     22040     22041     22040     22042     22042     22043
     22042     22044     22044     22045     22044     22046     22044     22047
     22047     22048     22047     22049     22049     22050     22049     22051
     22051     22052     22051     22053     22051     22054     22054     22055
     22054     22056     22054     22057     22057     22058     22057     22059
     22057     22060     22060     22061     22060     22062     22060     22063
     22063     22064     22063     22065     22063     22066     22014     22015
     22015     22017     22015     22016     22017     22018     22017     22019
     22017     22067     22067     22068     22067     22069     22067     22070
     22070     22071     22070     22072     22070     22073     22073     22074
     22073     22075     22073     22076     22076     22077     22076     22078
     22076     22079     22079     22080     22079     22081     22079     22082
     22082     22083     22082     22084     22082     22085     22085     22086
     22085     22087     22085     22088     22088     22089     22088     22090
     22088     22091     22091     22092     22091     22093     22091     22094
     22094     22095     22094     22096     22094     22097     22097     22098
     22097     22099     22097     22100     22100     22101     22100     22102
     22100     22103     22103     22104     22103     22105     22103     22106
     22106     22107     22106     22108     22106     22109     22109     22110
     22109     22111     22109     22112     22112     22113     22112     22114
     22112     22115     22116     22118     22116     22117     22118     22119
     22116     22162     22162     22163     22162     22164     22162     22159
     22159     22160     22159     22161     22116     22120     22120     22121
     22120     22122     22120     22123     22123     22154     22154     22159
     22154     22155     22155     22156     22155     22157     22155     22158
     22123     22124     22124     22125     22124     22126     22126     22127
     22126     22128     22126     22129     22129     22130     22129     22152
     22152     22153     22152     22154     22129     22131     22131     22132
     22131     22141     22141     22146     22146     22147     22146     22148
     22146     22149     22149     22150     22149     22151     22149     22152
     22141     22142     22142     22143     22142     22144     22142     22145
     22131     22133     22133     22134     22133     22135     22133     22136
     22136     22137     22136     22138     22136     22139     22139     22140
     22139     22141     22139     22165     22165     22166     22165     22167
     22167     22168     22167     22169     22167     22170     22165     22171
     22171     22172     22171     22173     22171     22174     22174     22175
     22174     22176     22174     22177     22177     22178     22177     22179
     22177     22180     22180     22181     22180     22182     22182     22183
     22182     22184     22182     22185     22180     22186     22186     22187
     22186     22188     22186     22189     22190     22191     22190     22192
     22190     22193     22190     22194     22194     22195     22194     22196
     22194     22197     22197     22198     22197     22199     22197     22203
     22205     22204     22203     22200     22200     22204     22200     22201
     22200     22202     22205     22206     22205     22207     22205     22208
     22208     22209     22208     22216     22208     22210     22216     22217
     22216     22218     22216     22219     22210     22211     22211     22213
     22211     22212     22213     22214     22213     22215     22213     22225
     22225     22226     22225     22227     22225     22228     22228     22229
     22228     22230     22228     22231     22231     22232     22231     22233
     22231     22234     22234     22235     22234     22236     22234     22237
     22237     22238     22237     22239     22237     22240     22240     22241
     22240     22242     22240     22243     22243     22244     22243     22245
     22245     22246     22245     22247     22247     22248     22247     22249
     22247     22250     22250     22251     22250     22252     22250     22253
     22253     22254     22253     22255     22253     22256     22256     22257
     22256     22258     22256     22259     22259     22260     22259     22261
     22259     22262     22262     22263     22262     22264     22262     22265
     22265     22266     22265     22267     22265     22268     22268     22269
     22268     22270     22268     22271     22219     22220     22220     22222
     22220     22221     22222     22223     22222     22224     22222     22272
     22272     22273     22272     22274     22272     22275     22275     22276
     22275     22277     22275     22278     22278     22279     22278     22280
     22278     22281     22281     22282     22281     22283     22281     22284
     22284     22285     22284     22286     22284     22287     22287     22288
     22287     22289     22287     22290     22290     22291     22290     22292
     22290     22293     22293     22294     22293     22295     22293     22296
     22296     22297     22296     22298     22296     22299     22299     22300
     22299     22301     22299     22302     22302     22303     22302     22304
     22302     22305     22305     22306     22305     22307     22305     22308
     22308     22309     22308     22310     22308     22311     22311     22312
     22311     22313     22311     22314     22314     22315     22314     22316
     22314     22317     22317     22318     22317     22319     22317     22320

     43040 !NTHETA: angles
         1         3         4         1         5         6         1         5         7
         1         5         8         1        47        44         1        47        48
         1        47        49         2         1         3         2         1         5
         2         1        47         3         1         5         3         1        47
         5         1        47         5         8         9         5         8        39
         6         5         7         6         5         8         7         5         8
         8         9        10         8         9        11         8        39        37
         8        39        40         8        39        44         9         8        39
         9        11        12         9        11        13         9        11        14
        10         9        11        11        14        15        11        14        16
        11        14        37        12        11        13        12        11        14
        13        11        14        14        16        17        14        16        18
        14        16        26        14        37        34        14        37        38
        14        37        39        15        14        16        15        14        37
        16        14        37        16        18        19        16        18        20
        16        18        21        16        26        24        16        26        27
        16        26        31        17        16        18        17        16        26
        18        16        26        18        21        22        18        21        23
        18        21        24        19        18        20        19        18        21
        20        18        21        21        24        25        21        24        26
        21        24        50        22        21        23        22        21        24
        23        21        24        24        26        27        24        26        31
        24        50        51        24        50        52        24        50        56
        25        24        26        25        24        50        26        24        50
        26        27        28        26        27        29        26        27        30
        26        31        32        26        31        33        26        31        34
        27        26        31        28        27        29        28        27        30
        29        27        30        31        34        35        31        34        36
        31        34        37        32        31        33        32        31        34
        33        31        34        34        37        38        34        37        39
        35        34        36        35        34        37        36        34        37
        37        39        40        37        39        44        38        37        39
        39        40        41        39        40        42        39        40        43
        39        44        45        39        44        46        39        44        47
        40        39        44        41        40        42        41        40        43
        42        40        43        44        47        48        44        47        49
        45        44        46        45        44        47        46        44        47
        48        47        49        50        52        53        50        52        54
        50        52        55        50        56        57        50        56        58
        50        56        59        51        50        52        51        50        56
        52        50        56        53        52        54        53        52        55
        54        52        55        56        59        60        56        59        61
        56        59        62        57        56        58        57        56        59
        58        56        59        59        62        63        59        62        64
        59        62        65        60        59        61        60        59        62
        61        59        62        62        65        66        62        65        67
        62        65        71        63        62        64        63        62        65
        64        62        65        65        67        68        65        67        69
        65        67        70        65        71        72        65        71        73
        65        71        74        66        65        67        66        65        71
        67        65        71        68        67        69        68        67        70
        69        67        70        72        71        73        72        71        74
        73        71        74        75        76        77        75        76        78
        75        76        79        75        80        81        75        80        82
        75        80        83        75        84        85        75        84        86
        75        84        87        75        88        89        75        88        90
        75        88        91        76        75        80        76        75        84
        76        75        88        77        76        78        77        76        79
        78        76        79        80        75        84        80        75        88
        81        80        82        81        80        83        82        80        83
        84        75        88        85        84        86        85        84        87
        86        84        87        88        91        92        88        91        93
        88        91        97        89        88        90        89        88        91
        90        88        91        91        97        94        92        91        93
        92        91        97        93        91        97        94        98        99
        95        94        96        95        94        97        95        94        98
        96        94        97        96        94        98        97        94        98
        98        99       100        98        99       101        98        99       102
        99       102       103        99       102       104        99       102       110
       100        99       101       100        99       102       101        99       102
       102       104       105       102       110       111       102       110       112
       102       110       113       103       102       104       103       102       110
       104       102       110       104       105       106       104       105       107
       105       107       108       105       107       109       105       107       119
       106       105       107       107       119       120       107       119       121
       107       119       122       108       107       109       108       107       119
       109       107       119       110       113       114       111       110       112
       111       110       113       112       110       113       113       114       115
       113       114       116       114       116       117       114       116       118
       114       116       164       115       114       116       116       164       165
       116       164       166       116       164       167       117       116       118
       117       116       164       118       116       164       119       122       123
       119       122       124       119       122       125       120       119       121
       120       119       122       121       119       122       122       125       126
       122       125       127       122       125       128       123       122       124
       123       122       125       124       122       125       125       128       129
       125       128       130       125       128       131       126       125       127
       126       125       128       127       125       128       128       131       132
       128       131       133       128       131       134       129       128       130
       129       128       131       130       128       131       131       134       135
       131       134       136       131       134       137       132       131       133
       132       131       134       133       131       134       134       137       138
       134       137       139       135       134       136       135       134       137
       136       134       137       137       139       140       137       139       141
       138       137       139       139       141       142       139       141       143
       139       141       144       140       139       141       141       144       145
       141       144       146       142       141       143       142       141       144
       143       141       144       144       146       147       144       146       148
       145       144       146       146       148       149       146       148       150
       146       148       151       147       146       148       148       151       152
       148       151       153       148       151       154       149       148       150
       149       148       151       150       148       151       151       154       155
       151       154       156       151       154       157       152       151       153
       152       151       154       153       151       154       154       157       158
       154       157       159       154       157       160       155       154       156
       155       154       157       156       154       157       157       160       161
       157       160       162       157       160       163       158       157       159
       158       157       160       159       157       160       161       160       162
       161       160       163       162       160       163       164       167       168
       164       167       169       164       167       170       165       164       166
       165       164       167       166       164       167       167       170       171
       167       170       172       167       170       173       168       167       169
       168       167       170       169       167       170       170       173       174
       170       173       175       170       173       176       171       170       172
       171       170       173       172       170       173       173       176       177
       173       176       178       173       176       179       174       173       175
       174       173       176       175       173       176       176       179       180
       176       179       181       176       179       182       177       176       178
       177       176       179       178       176       179       179       182       183
       179       182       184       179       182       185       180       179       181
       180       179       182       181       179       182       182       185       186
       182       185       187       182       185       188       183       182       184
       183       182       185       184       182       185       185       188       189
       185       188       190       185       188       191       186       185       187
       186       185       188       187       185       188       188       191       192
       188       191       193       188       191       194       189       188       190
       189       188       191       190       188       191       191       194       195
       191       194       196       191       194       197       192       191       193
       192       191       194       193       191       194       194       197       198
       194       197       199       194       197       200       195       194       196
       195       194       197       196       194       197       197       200       201
       197       200       202       197       200       203       198       197       199
       198       197       200       199       197       200       200       203       204
       200       203       205       200       203       206       201       200       202
       201       200       203       202       200       203       203       206       207
       203       206       208       203       206       209       204       203       205
       204       203       206       205       203       206       206       209       210
       206       209       211       206       209       212       207       206       208
       207       206       209       208       206       209       210       209       211
       210       209       212       211       209       212       213       214       215
       213       214       216       213       214       229       213       217       218
       213       217       219       213       217       220       213       221       222
       213       221       223       213       221       224       213       225       226
       213       225       227       213       225       228       214       213       217
       214       213       221       214       213       225       214       229       230
       214       229       231       214       229       235       215       214       216
       215       214       229       216       214       229       217       213       221
       217       213       225       218       217       219       218       217       220
       219       217       220       221       213       225       222       221       223
       222       221       224       223       221       224       226       225       227
       226       225       228       227       225       228       229       235       232
       230       229       231       230       229       235       231       229       235
       232       236       237       233       232       234       233       232       235
       233       232       236       234       232       235       234       232       236
       235       232       236       236       237       238       236       237       239
       236       237       240       237       240       241       237       240       242
       237       240       248       238       237       239       238       237       240
       239       237       240       240       242       243       240       248       249
       240       248       250       240       248       251       241       240       242
       241       240       248       242       240       248       242       243       244
       242       243       245       243       245       246       243       245       247
       243       245       257       244       243       245       245       257       258
       245       257       259       245       257       260       246       245       247
       246       245       257       247       245       257       248       251       252
       249       248       250       249       248       251       250       248       251
       251       252       253       251       252       254       252       254       255
       252       254       256       252       254       304       253       252       254
       254       304       305       254       304       306       254       304       307
       255       254       256       255       254       304       256       254       304
       257       260       261       257       260       262       257       260       263
       258       257       259       258       257       260       259       257       260
       260       263       264       260       263       265       260       263       266
       261       260       262       261       260       263       262       260       263
       263       266       267       263       266       268       263       266       269
       264       263       265       264       263       266       265       263       266
       266       269       270       266       269       271       266       269       272
       267       266       268       267       266       269       268       266       269
       269       272       273       269       272       274       269       272       275
       270       269       271       270       269       272       271       269       272
       272       275       276       272       275       277       273       272       274
       273       272       275       274       272       275       275       277       278
       275       277       279       276       275       277       277       279       280
       277       279       281       277       279       282       278       277       279
       279       282       283       279       282       284       279       282       285
       280       279       281       280       279       282       281       279       282
       282       285       286       282       285       287       282       285       288
       283       282       284       283       282       285       284       282       285
       285       288       289       285       288       290       285       288       291
       286       285       287       286       285       288       287       285       288
       288       291       292       288       291       293       288       291       294
       289       288       290       289       288       291       290       288       291
       291       294       295       291       294       296       291       294       297
       292       291       293       292       291       294       293       291       294
       294       297       298       294       297       299       294       297       300
       295       294       296       295       294       297       296       294       297
       297       300       301       297       300       302       297       300       303
       298       297       299       298       297       300       299       297       300
       301       300       302       301       300       303       302       300       303
       304       307       308       304       307       309       304       307       310
       305       304       306       305       304       307       306       304       307
       307       310       311       307       310       312       307       310       313
       308       307       309       308       307       310       309       307       310
       310       313       314       310       313       315       310       313       316
       311       310       312       311       310       313       312       310       313
       313       316       317       313       316       318       313       316       319
       314       313       315       314       313       316       315       313       316
       316       319       320       316       319       321       316       319       322
       317       316       318       317       316       319       318       316       319
       319       322       323       319       322       324       319       322       325
       320       319       321       320       319       322       321       319       322
       322       325       326       322       325       327       322       325       328
       323       322       324       323       322       325       324       322       325
       325       328       329       325       328       330       325       328       331
       326       325       327       326       325       328       327       325       328
       328       331       332       328       331       333       328       331       334
       329       328       330       329       328       331       330       328       331
       331       334       335       331       334       336       331       334       337
       332       331       333       332       331       334       333       331       334
       334       337       338       334       337       339       334       337       340
       335       334       336       335       334       337       336       334       337
       337       340       341       337       340       342       337       340       343
       338       337       339       338       337       340       339       337       340
       340       343       344       340       343       345       340       343       346
       341       340       342       341       340       343       342       340       343
       344       343       345       344       343       346       345       343       346
       347       348       349       347       348       350       347       348       351
       347       352       353       347       352       354       347       352       355
       347       356       357       347       356       358       347       356       359
       347       360       361       347       360       362       347       360       363
       348       347       352       348       347       356       348       347       360
       349       348       350       349       348       351       350       348       351
       352       347       356       352       347       360       353       352       354
       353       352       355       354       352       355       356       347       360
       357       356       358       357       356       359       358       356       359
       360       363       364       360       363       365       360       363       369
       361       360       362       361       360       363       362       360       363
       363       369       366       364       363       365       364       363       369
       365       363       369       366       370       371       367       366       368
       367       366       369       367       366       370       368       366       369
       368       366       370       369       366       370       370       371       372
       370       371       373       370       371       374       371       374       375
       371       374       376       371       374       382       372       371       373
       372       371       374       373       371       374       374       376       377
       374       382       383       374       382       384       374       382       385
       375       374       376       375       374       382       376       374       382
       376       377       378       376       377       379       377       379       380
       377       379       381       377       379       391       378       377       379
       379       391       392       379       391       393       379       391       394
       380       379       381       380       379       391       381       379       391
       382       385       386       383       382       384       383       382       385
       384       382       385       385       386       387       385       386       388
       386       388       389       386       388       390       386       388       436
       387       386       388       388       436       437       388       436       438
       388       436       439       389       388       390       389       388       436
       390       388       436       391       394       395       391       394       396
       391       394       397       392       391       393       392       391       394
       393       391       394       394       397       398       394       397       399
       394       397       400       395       394       396       395       394       397
       396       394       397       397       400       401       397       400       402
       397       400       403       398       397       399       398       397       400
       399       397       400       400       403       404       400       403       405
       400       403       406       401       400       402       401       400       403
       402       400       403       403       406       407       403       406       408
       403       406       409       404       403       405       404       403       406
       405       403       406       406       409       410       406       409       411
       407       406       408       407       406       409       408       406       409
       409       411       412       409       411       413       410       409       411
       411       413       414       411       413       415       411       413       416
       412       411       413       413       416       417       413       416       418
       414       413       415       414       413       416       415       413       416
       416       418       419       416       418       420       417       416       418
       418       420       421       418       420       422       418       420       423
       419       418       420       420       423       424       420       423       425
       420       423       426       421       420       422       421       420       423
       422       420       423       423       426       427       423       426       428
       423       426       429       424       423       425       424       423       426
       425       423       426       426       429       430       426       429       431
       426       429       432       427       426       428       427       426       429
       428       426       429       429       432       433       429       432       434
       429       432       435       430       429       431       430       429       432
       431       429       432       433       432       434       433       432       435
       434       432       435       436       439       440       436       439       441
       436       439       442       437       436       438       437       436       439
       438       436       439       439       442       443       439       442       444
       439       442       445       440       439       441       440       439       442
       441       439       442       442       445       446       442       445       447
       442       445       448       443       442       444       443       442       445
       444       442       445       445       448       449       445       448       450
       445       448       451       446       445       447       446       445       448
       447       445       448       448       451       452       448       451       453
       448       451       454       449       448       450       449       448       451
       450       448       451       451       454       455       451       454       456
       451       454       457       452       451       453       452       451       454
       453       451       454       454       457       458       454       457       459
       454       457       460       455       454       456       455       454       457
       456       454       457       457       460       461       457       460       462
       457       460       463       458       457       459       458       457       460
       459       457       460       460       463       464       460       463       465
       460       463       466       461       460       462       461       460       463
       462       460       463       463       466       467       463       466       468
       463       466       469       464       463       465       464       463       466
       465       463       466       466       469       470       466       469       471
       466       469       472       467       466       468       467       466       469
       468       466       469       469       472       473       469       472       474
       469       472       475       470       469       471       470       469       472
       471       469       472       472       475       476       472       475       477
       472       475       478       473       472       474       473       472       475
       474       472       475       475       478       479       475       478       480
       475       478       481       476       475       477       476       475       478
       477       475       478       478       481       482       478       481       483
       478       481       484       479       478       480       479       478       481
       480       478       481       482       481       483       482       481       484
       483       481       484       485       486       487       485       486       488
       485       486       489       485       490       491       485       490       492
       485       490       493       485       494       495       485       494       496
       485       494       497       485       498       499       485       498       500
       485       498       501       486       485       490       486       485       494
       486       485       498       487       486       488       487       486       489
       488       486       489       490       485       494       490       485       498
       491       490       492       491       490       493       492       490       493
       494       485       498       495       494       496       495       494       497
       496       494       497       498       501       502       498       501       503
       498       501       508       499       498       500       499       498       501
       500       498       501       501       508       504       502       501       503
       502       501       508       503       501       508       504       507       509
       505       504       506       505       504       507       505       504       508
       506       504       507       506       504       508       507       504       508
       507       509       510       507       509       511       507       509       514
       509       514       512       509       514       515       509       514       516
       510       509       511       510       509       514       511       509       514
       512       514       515       512       514       516       512       564       565
       512       564       566       513       512       514       513       512       564
       514       512       564       514       516       517       514       516       518
       514       516       520       515       514       516       516       518       519
       516       520       521       516       520       522       517       516       518
       517       516       520       518       516       520       520       522       523
       520       522       524       521       520       522       522       524       525
       522       524       526       522       524       527       523       522       524
       524       527       528       524       527       529       524       527       530
       525       524       526       525       524       527       526       524       527
       527       530       531       527       530       532       527       530       533
       528       527       529       528       527       530       529       527       530
       530       533       534       530       533       535       530       533       536
       531       530       532       531       530       533       532       530       533
       533       536       537       533       536       538       533       536       539
       534       533       535       534       533       536       535       533       536
       536       539       540       536       539       541       536       539       542
       537       536       538       537       536       539       538       536       539
       539       542       543       539       542       544       539       542       545
       540       539       541       540       539       542       541       539       542
       542       545       546       542       545       547       542       545       548
       543       542       544       543       542       545       544       542       545
       545       548       549       545       548       550       545       548       551
       546       545       547       546       545       548       547       545       548
       548       551       552       548       551       553       548       551       554
       549       548       550       549       548       551       550       548       551
       551       554       555       551       554       556       551       554       557
       552       551       553       552       551       554       553       551       554
       554       557       558       554       557       559       554       557       560
       555       554       556       555       554       557       556       554       557
       557       560       561       557       560       562       557       560       563
       558       557       559       558       557       560       559       557       560
       561       560       562       561       560       563       562       560       563
       564       566       567       564       566       568       564       566       569
       565       564       566       566       569       570       566       569       571
       566       569       572       567       566       568       567       566       569
       568       566       569       569       572       573       569       572       574
       569       572       575       570       569       571       570       569       572
       571       569       572       572       575       576       572       575       577
       572       575       578       573       572       574       573       572       575
       574       572       575       575       578       579       575       578       580
       575       578       581       576       575       577       576       575       578
       577       575       578       578       581       582       578       581       583
       578       581       584       579       578       580       579       578       581
       580       578       581       581       584       585       581       584       586
       581       584       587       582       581       583       582       581       584
       583       581       584       584       587       588       584       587       589
       585       584       586       585       584       587       586       584       587
       587       589       590       587       589       591       588       587       589
       589       591       592       589       591       593       589       591       594
       590       589       591       591       594       595       591       594       596
       591       594       597       592       591       593       592       591       594
       593       591       594       594       597       598       594       597       599
       594       597       600       595       594       596       595       594       597
       596       594       597       597       600       601       597       600       602
       597       600       603       598       597       599       598       597       600
       599       597       600       600       603       604       600       603       605
       600       603       606       601       600       602       601       600       603
       602       600       603       603       606       607       603       606       608
       603       606       609       604       603       605       604       603       606
       605       603       606       606       609       610       606       609       611
       606       609       612       607       606       608       607       606       609
       608       606       609       609       612       613       609       612       614
       609       612       615       610       609       611       610       609       612
       611       609       612       613       612       614       613       612       615
       614       612       615       616       618       619       616       620       621
       616       620       622       616       620       623       616       662       659
       616       662       663       616       662       664       617       616       618
       617       616       620       617       616       662       618       616       620
       618       616       662       620       616       662       620       623       624
       620       623       654       621       620       622       621       620       623
       622       620       623       623       624       625       623       624       626
       623       654       652       623       654       655       623       654       659
       624       623       654       624       626       627       624       626       628
       624       626       629       625       624       626       626       629       630
       626       629       631       626       629       652       627       626       628
       627       626       629       628       626       629       629       631       632
       629       631       633       629       631       641       629       652       649
       629       652       653       629       652       654       630       629       631
       630       629       652       631       629       652       631       633       634
       631       633       635       631       633       636       631       641       639
       631       641       642       631       641       646       632       631       633
       632       631       641       633       631       641       633       636       637
       633       636       638       633       636       639       634       633       635
       634       633       636       635       633       636       636       639       640
       636       639       641       636       639       665       637       636       638
       637       636       639       638       636       639       639       641       642
       639       641       646       639       665       666       639       665       667
       639       665       671       640       639       641       640       639       665
       641       639       665       641       642       643       641       642       644
       641       642       645       641       646       647       641       646       648
       641       646       649       642       641       646       643       642       644
       643       642       645       644       642       645       646       649       650
       646       649       651       646       649       652       647       646       648
       647       646       649       648       646       649       649       652       653
       649       652       654       650       649       651       650       649       652
       651       649       652       652       654       655       652       654       659
       653       652       654       654       655       656       654       655       657
       654       655       658       654       659       660       654       659       661
       654       659       662       655       654       659       656       655       657
       656       655       658       657       655       658       659       662       663
       659       662       664       660       659       661       660       659       662
       661       659       662       663       662       664       665       667       668
       665       667       669       665       667       670       665       671       672
       665       671       673       665       671       674       666       665       667
       666       665       671       667       665       671       668       667       669
       668       667       670       669       667       670       671       674       675
       671       674       676       671       674       677       672       671       673
       672       671       674       673       671       674       674       677       678
       674       677       679       674       677       680       675       674       676
       675       674       677       676       674       677       677       680       681
       677       680       682       677       680       686       678       677       679
       678       677       680       679       677       680       680       682       683
       680       682       684       680       682       685       680       686       687
       680       686       688       680       686       689       681       680       682
       681       680       686       682       680       686       683       682       684
       683       682       685       684       682       685       687       686       688
       687       686       689       688       686       689       690       691       692
       690       691       693       690       691       694       690       695       696
       690       695       697       690       695       698       690       699       700
       690       699       701       690       699       702       690       703       704
       690       703       705       690       703       706       691       690       695
       691       690       699       691       690       703       692       691       693
       692       691       694       693       691       694       695       690       699
       695       690       703       696       695       697       696       695       698
       697       695       698       699       690       703       700       699       701
       700       699       702       701       699       702       703       706       707
       703       706       708       703       706       713       704       703       705
       704       703       706       705       703       706       706       713       709
       707       706       708       707       706       713       708       706       713
       709       712       714       710       709       711       710       709       712
       710       709       713       711       709       712       711       709       713
       712       709       713       712       714       715       712       714       716
       712       714       719       714       719       717       714       719       720
       714       719       721       715       714       716       715       714       719
       716       714       719       717       719       720       717       719       721
       717       769       770       717       769       771       718       717       719
       718       717       769       719       717       769       719       721       722
       719       721       723       719       721       725       720       719       721
       721       723       724       721       725       726       721       725       727
       722       721       723       722       721       725       723       721       725
       725       727       728       725       727       729       726       725       727
       727       729       730       727       729       731       727       729       732
       728       727       729       729       732       733       729       732       734
       729       732       735       730       729       731       730       729       732
       731       729       732       732       735       736       732       735       737
       732       735       738       733       732       734       733       732       735
       734       732       735       735       738       739       735       738       740
       735       738       741       736       735       737       736       735       738
       737       735       738       738       741       742       738       741       743
       738       741       744       739       738       740       739       738       741
       740       738       741       741       744       745       741       744       746
       741       744       747       742       741       743       742       741       744
       743       741       744       744       747       748       744       747       749
       744       747       750       745       744       746       745       744       747
       746       744       747       747       750       751       747       750       752
       747       750       753       748       747       749       748       747       750
       749       747       750       750       753       754       750       753       755
       750       753       756       751       750       752       751       750       753
       752       750       753       753       756       757       753       756       758
       753       756       759       754       753       755       754       753       756
       755       753       756       756       759       760       756       759       761
       756       759       762       757       756       758       757       756       759
       758       756       759       759       762       763       759       762       764
       759       762       765       760       759       761       760       759       762
       761       759       762       762       765       766       762       765       767
       762       765       768       763       762       764       763       762       765
       764       762       765       766       765       767       766       765       768
       767       765       768       769       771       772       769       771       773
       769       771       774       770       769       771       771       774       775
       771       774       776       771       774       777       772       771       773
       772       771       774       773       771       774       774       777       778
       774       777       779       774       777       780       775       774       776
       775       774       777       776       774       777       777       780       781
       777       780       782       777       780       783       778       777       779
       778       777       780       779       777       780       780       783       784
       780       783       785       780       783       786       781       780       782
       781       780       783       782       780       783       783       786       787
       783       786       788       783       786       789       784       783       785
       784       783       786       785       783       786       786       789       790
       786       789       791       786       789       792       787       786       788
       787       786       789       788       786       789       789       792       793
       789       792       794       790       789       791       790       789       792
       791       789       792       792       794       795       792       794       796
       793       792       794       794       796       797       794       796       798
       794       796       799       795       794       796       796       799       800
       796       799       801       796       799       802       797       796       798
       797       796       799       798       796       799       799       802       803
       799       802       804       799       802       805       800       799       801
       800       799       802       801       799       802       802       805       806
       802       805       807       802       805       808       803       802       804
       803       802       805       804       802       805       805       808       809
       805       808       810       805       808       811       806       805       807
       806       805       808       807       805       808       808       811       812
       808       811       813       808       811       814       809       808       810
       809       808       811       810       808       811       811       814       815
       811       814       816       811       814       817       812       811       813
       812       811       814       813       811       814       814       817       818
       814       817       819       814       817       820       815       814       816
       815       814       817       816       814       817       818       817       819
       818       817       820       819       817       820       821       823       824
       821       825       826       821       825       827       821       825       828
       821       867       864       821       867       868       821       867       869
       822       821       823       822       821       825       822       821       867
       823       821       825       823       821       867       825       821       867
       825       828       829       825       828       859       826       825       827
       826       825       828       827       825       828       828       829       830
       828       829       831       828       859       857       828       859       860
       828       859       864       829       828       859       829       831       832
       829       831       833       829       831       834       830       829       831
       831       834       835       831       834       836       831       834       857
       832       831       833       832       831       834       833       831       834
       834       836       837       834       836       838       834       836       846
       834       857       854       834       857       858       834       857       859
       835       834       836       835       834       857       836       834       857
       836       838       839       836       838       840       836       838       841
       836       846       844       836       846       847       836       846       851
       837       836       838       837       836       846       838       836       846
       838       841       842       838       841       843       838       841       844
       839       838       840       839       838       841       840       838       841
       841       844       845       841       844       846       841       844       870
       842       841       843       842       841       844       843       841       844
       844       846       847       844       846       851       844       870       871
       844       870       872       844       870       876       845       844       846
       845       844       870       846       844       870       846       847       848
       846       847       849       846       847       850       846       851       852
       846       851       853       846       851       854       847       846       851
       848       847       849       848       847       850       849       847       850
       851       854       855       851       854       856       851       854       857
       852       851       853       852       851       854       853       851       854
       854       857       858       854       857       859       855       854       856
       855       854       857       856       854       857       857       859       860
       857       859       864       858       857       859       859       860       861
       859       860       862       859       860       863       859       864       865
       859       864       866       859       864       867       860       859       864
       861       860       862       861       860       863       862       860       863
       864       867       868       864       867       869       865       864       866
       865       864       867       866       864       867       868       867       869
       870       872       873       870       872       874       870       872       875
       870       876       877       870       876       878       870       876       879
       871       870       872       871       870       876       872       870       876
       873       872       874       873       872       875       874       872       875
       876       879       880       876       879       881       876       879       882
       877       876       878       877       876       879       878       876       879
       879       882       883       879       882       884       879       882       885
       880       879       881       880       879       882       881       879       882
       882       885       886       882       885       887       882       885       891
       883       882       884       883       882       885       884       882       885
       885       887       888       885       887       889       885       887       890
       885       891       892       885       891       893       885       891       894
       886       885       887       886       885       891       887       885       891
       888       887       889       888       887       890       889       887       890
       892       891       893       892       891       894       893       891       894
       895       896       897       895       896       898       895       896       899
       895       900       901       895       900       902       895       900       903
       895       904       905       895       904       906       895       904       907
       895       908       909       895       908       910       895       908       911
       896       895       900       896       895       904       896       895       908
       897       896       898       897       896       899       898       896       899
       900       895       904       900       895       908       901       900       902
       901       900       903       902       900       903       904       895       908
       905       904       906       905       904       907       906       904       907
       908       911       912       908       911       913       908       911       918
       909       908       910       909       908       911       910       908       911
       911       918       914       912       911       913       912       911       918
       913       911       918       914       917       919       915       914       916
       915       914       917       915       914       918       916       914       917
       916       914       918       917       914       918       917       919       920
       917       919       921       917       919       924       919       924       922
       919       924       925       919       924       926       920       919       921
       920       919       924       921       919       924       922       924       925
       922       924       926       922       974       975       922       974       976
       923       922       924       923       922       974       924       922       974
       924       926       927       924       926       928       924       926       930
       925       924       926       926       928       929       926       930       931
       926       930       932       927       926       928       927       926       930
       928       926       930       930       932       933       930       932       934
       931       930       932       932       934       935       932       934       936
       932       934       937       933       932       934       934       937       938
       934       937       939       934       937       940       935       934       936
       935       934       937       936       934       937       937       940       941
       937       940       942       937       940       943       938       937       939
       938       937       940       939       937       940       940       943       944
       940       943       945       940       943       946       941       940       942
       941       940       943       942       940       943       943       946       947
       943       946       948       943       946       949       944       943       945
       944       943       946       945       943       946       946       949       950
       946       949       951       946       949       952       947       946       948
       947       946       949       948       946       949       949       952       953
       949       952       954       949       952       955       950       949       951
       950       949       952       951       949       952       952       955       956
       952       955       957       952       955       958       953       952       954
       953       952       955       954       952       955       955       958       959
       955       958       960       955       958       961       956       955       957
       956       955       958       957       955       958       958       961       962
       958       961       963       958       961       964       959       958       960
       959       958       961       960       958       961       961       964       965
       961       964       966       961       964       967       962       961       963
       962       961       964       963       961       964       964       967       968
       964       967       969       964       967       970       965       964       966
       965       964       967       966       964       967       967       970       971
       967       970       972       967       970       973       968       967       969
       968       967       970       969       967       970       971       970       972
       971       970       973       972       970       973       974       976       977
       974       976       978       974       976       979       975       974       976
       976       979       980       976       979       981       976       979       982
       977       976       978       977       976       979       978       976       979
       979       982       983       979       982       984       979       982       985
       980       979       981       980       979       982       981       979       982
       982       985       986       982       985       987       982       985       988
       983       982       984       983       982       985       984       982       985
       985       988       989       985       988       990       985       988       991
       986       985       987       986       985       988       987       985       988
       988       991       992       988       991       993       988       991       994
       989       988       990       989       988       991       990       988       991
       991       994       995       991       994       996       991       994       997
       992       991       993       992       991       994       993       991       994
       994       997       998       994       997       999       995       994       996
       995       994       997       996       994       997       997       999      1000
       997       999      1001       998       997       999       999      1001      1002
       999      1001      1003       999      1001      1004      1000       999      1001
      1001      1004      1005      1001      1004      1006      1001      1004      1007
      1002      1001      1003      1002      1001      1004      1003      1001      1004
      1004      1007      1008      1004      1007      1009      1004      1007      1010
      1005      1004      1006      1005      1004      1007      1006      1004      1007
      1007      1010      1011      1007      1010      1012      1007      1010      1013
      1008      1007      1009      1008      1007      1010      1009      1007      1010
      1010      1013      1014      1010      1013      1015      1010      1013      1016
      1011      1010      1012      1011      1010      1013      1012      1010      1013
      1013      1016      1017      1013      1016      1018      1013      1016      1019
      1014      1013      1015      1014      1013      1016      1015      1013      1016
      1016      1019      1020      1016      1019      1021      1016      1019      1022
      1017      1016      1018      1017      1016      1019      1018      1016      1019
      1019      1022      1023      1019      1022      1024      1019      1022      1025
      1020      1019      1021      1020      1019      1022      1021      1019      1022
      1023      1022      1024      1023      1022      1025      1024      1022      1025
      1026      1027      1028      1026      1027      1029      1026      1027      1030
      1026      1031      1032      1026      1031      1033      1026      1031      1034
      1026      1035      1036      1026      1035      1037      1026      1035      1038
      1026      1039      1040      1026      1039      1041      1026      1039      1042
      1027      1026      1031      1027      1026      1035      1027      1026      1039
      1028      1027      1029      1028      1027      1030      1029      1027      1030
      1031      1026      1035      1031      1026      1039      1032      1031      1033
      1032      1031      1034      1033      1031      1034      1035      1026      1039
      1036      1035      1037      1036      1035      1038      1037      1035      1038
      1039      1042      1043      1039      1042      1044      1039      1042      1049
      1040      1039      1041      1040      1039      1042      1041      1039      1042
      1042      1049      1045      1043      1042      1044      1043      1042      1049
      1044      1042      1049      1045      1048      1050      1046      1045      1047
      1046      1045      1048      1046      1045      1049      1047      1045      1048
      1047      1045      1049      1048      1045      1049      1048      1050      1051
      1048      1050      1052      1048      1050      1055      1050      1055      1053
      1050      1055      1056      1050      1055      1057      1051      1050      1052
      1051      1050      1055      1052      1050      1055      1053      1055      1056
      1053      1055      1057      1053      1105      1106      1053      1105      1107
      1054      1053      1055      1054      1053      1105      1055      1053      1105
      1055      1057      1058      1055      1057      1059      1055      1057      1061
      1056      1055      1057      1057      1059      1060      1057      1061      1062
      1057      1061      1063      1058      1057      1059      1058      1057      1061
      1059      1057      1061      1061      1063      1064      1061      1063      1065
      1062      1061      1063      1063      1065      1066      1063      1065      1067
      1063      1065      1068      1064      1063      1065      1065      1068      1069
      1065      1068      1070      1065      1068      1071      1066      1065      1067
      1066      1065      1068      1067      1065      1068      1068      1071      1072
      1068      1071      1073      1068      1071      1074      1069      1068      1070
      1069      1068      1071      1070      1068      1071      1071      1074      1075
      1071      1074      1076      1071      1074      1077      1072      1071      1073
      1072      1071      1074      1073      1071      1074      1074      1077      1078
      1074      1077      1079      1074      1077      1080      1075      1074      1076
      1075      1074      1077      1076      1074      1077      1077      1080      1081
      1077      1080      1082      1077      1080      1083      1078      1077      1079
      1078      1077      1080      1079      1077      1080      1080      1083      1084
      1080      1083      1085      1080      1083      1086      1081      1080      1082
      1081      1080      1083      1082      1080      1083      1083      1086      1087
      1083      1086      1088      1083      1086      1089      1084      1083      1085
      1084      1083      1086      1085      1083      1086      1086      1089      1090
      1086      1089      1091      1086      1089      1092      1087      1086      1088
      1087      1086      1089      1088      1086      1089      1089      1092      1093
      1089      1092      1094      1089      1092      1095      1090      1089      1091
      1090      1089      1092      1091      1089      1092      1092      1095      1096
      1092      1095      1097      1092      1095      1098      1093      1092      1094
      1093      1092      1095      1094      1092      1095      1095      1098      1099
      1095      1098      1100      1095      1098      1101      1096      1095      1097
      1096      1095      1098      1097      1095      1098      1098      1101      1102
      1098      1101      1103      1098      1101      1104      1099      1098      1100
      1099      1098      1101      1100      1098      1101      1102      1101      1103
      1102      1101      1104      1103      1101      1104      1105      1107      1108
      1105      1107      1109      1105      1107      1110      1106      1105      1107
      1107      1110      1111      1107      1110      1112      1107      1110      1113
      1108      1107      1109      1108      1107      1110      1109      1107      1110
      1110      1113      1114      1110      1113      1115      1110      1113      1116
      1111      1110      1112      1111      1110      1113      1112      1110      1113
      1113      1116      1117      1113      1116      1118      1113      1116      1119
      1114      1113      1115      1114      1113      1116      1115      1113      1116
      1116      1119      1120      1116      1119      1121      1116      1119      1122
      1117      1116      1118      1117      1116      1119      1118      1116      1119
      1119      1122      1123      1119      1122      1124      1119      1122      1125
      1120      1119      1121      1120      1119      1122      1121      1119      1122
      1122      1125      1126      1122      1125      1127      1122      1125      1128
      1123      1122      1124      1123      1122      1125      1124      1122      1125
      1125      1128      1129      1125      1128      1130      1126      1125      1127
      1126      1125      1128      1127      1125      1128      1128      1130      1131
      1128      1130      1132      1129      1128      1130      1130      1132      1133
      1130      1132      1134      1130      1132      1135      1131      1130      1132
      1132      1135      1136      1132      1135      1137      1132      1135      1138
      1133      1132      1134      1133      1132      1135      1134      1132      1135
      1135      1138      1139      1135      1138      1140      1135      1138      1141
      1136      1135      1137      1136      1135      1138      1137      1135      1138
      1138      1141      1142      1138      1141      1143      1138      1141      1144
      1139      1138      1140      1139      1138      1141      1140      1138      1141
      1141      1144      1145      1141      1144      1146      1141      1144      1147
      1142      1141      1143      1142      1141      1144      1143      1141      1144
      1144      1147      1148      1144      1147      1149      1144      1147      1150
      1145      1144      1146      1145      1144      1147      1146      1144      1147
      1147      1150      1151      1147      1150      1152      1147      1150      1153
      1148      1147      1149      1148      1147      1150      1149      1147      1150
      1150      1153      1154      1150      1153      1155      1150      1153      1156
      1151      1150      1152      1151      1150      1153      1152      1150      1153
      1154      1153      1155      1154      1153      1156      1155      1153      1156
      1157      1159      1160      1157      1161      1162      1157      1161      1163
      1157      1161      1164      1157      1203      1200      1157      1203      1204
      1157      1203      1205      1158      1157      1159      1158      1157      1161
      1158      1157      1203      1159      1157      1161      1159      1157      1203
      1161      1157      1203      1161      1164      1165      1161      1164      1195
      1162      1161      1163      1162      1161      1164      1163      1161      1164
      1164      1165      1166      1164      1165      1167      1164      1195      1193
      1164      1195      1196      1164      1195      1200      1165      1164      1195
      1165      1167      1168      1165      1167      1169      1165      1167      1170
      1166      1165      1167      1167      1170      1171      1167      1170      1172
      1167      1170      1193      1168      1167      1169      1168      1167      1170
      1169      1167      1170      1170      1172      1173      1170      1172      1174
      1170      1172      1182      1170      1193      1190      1170      1193      1194
      1170      1193      1195      1171      1170      1172      1171      1170      1193
      1172      1170      1193      1172      1174      1175      1172      1174      1176
      1172      1174      1177      1172      1182      1180      1172      1182      1183
      1172      1182      1187      1173      1172      1174      1173      1172      1182
      1174      1172      1182      1174      1177      1178      1174      1177      1179
      1174      1177      1180      1175      1174      1176      1175      1174      1177
      1176      1174      1177      1177      1180      1181      1177      1180      1182
      1177      1180      1206      1178      1177      1179      1178      1177      1180
      1179      1177      1180      1180      1182      1183      1180      1182      1187
      1180      1206      1207      1180      1206      1208      1180      1206      1212
      1181      1180      1182      1181      1180      1206      1182      1180      1206
      1182      1183      1184      1182      1183      1185      1182      1183      1186
      1182      1187      1188      1182      1187      1189      1182      1187      1190
      1183      1182      1187      1184      1183      1185      1184      1183      1186
      1185      1183      1186      1187      1190      1191      1187      1190      1192
      1187      1190      1193      1188      1187      1189      1188      1187      1190
      1189      1187      1190      1190      1193      1194      1190      1193      1195
      1191      1190      1192      1191      1190      1193      1192      1190      1193
      1193      1195      1196      1193      1195      1200      1194      1193      1195
      1195      1196      1197      1195      1196      1198      1195      1196      1199
      1195      1200      1201      1195      1200      1202      1195      1200      1203
      1196      1195      1200      1197      1196      1198      1197      1196      1199
      1198      1196      1199      1200      1203      1204      1200      1203      1205
      1201      1200      1202      1201      1200      1203      1202      1200      1203
      1204      1203      1205      1206      1208      1209      1206      1208      1210
      1206      1208      1211      1206      1212      1213      1206      1212      1214
      1206      1212      1215      1207      1206      1208      1207      1206      1212
      1208      1206      1212      1209      1208      1210      1209      1208      1211
      1210      1208      1211      1212      1215      1216      1212      1215      1217
      1212      1215      1218      1213      1212      1214      1213      1212      1215
      1214      1212      1215      1215      1218      1219      1215      1218      1220
      1215      1218      1221      1216      1215      1217      1216      1215      1218
      1217      1215      1218      1218      1221      1222      1218      1221      1223
      1218      1221      1227      1219      1218      1220      1219      1218      1221
      1220      1218      1221      1221      1223      1224      1221      1223      1225
      1221      1223      1226      1221      1227      1228      1221      1227      1229
      1221      1227      1230      1222      1221      1223      1222      1221      1227
      1223      1221      1227      1224      1223      1225      1224      1223      1226
      1225      1223      1226      1228      1227      1229      1228      1227      1230
      1229      1227      1230      1231      1233      1234      1231      1235      1236
      1231      1235      1237      1231      1235      1238      1231      1277      1274
      1231      1277      1278      1231      1277      1279      1232      1231      1233
      1232      1231      1235      1232      1231      1277      1233      1231      1235
      1233      1231      1277      1235      1231      1277      1235      1238      1239
      1235      1238      1269      1236      1235      1237      1236      1235      1238
      1237      1235      1238      1238      1239      1240      1238      1239      1241
      1238      1269      1267      1238      1269      1270      1238      1269      1274
      1239      1238      1269      1239      1241      1242      1239      1241      1243
      1239      1241      1244      1240      1239      1241      1241      1244      1245
      1241      1244      1246      1241      1244      1267      1242      1241      1243
      1242      1241      1244      1243      1241      1244      1244      1246      1247
      1244      1246      1248      1244      1246      1256      1244      1267      1264
      1244      1267      1268      1244      1267      1269      1245      1244      1246
      1245      1244      1267      1246      1244      1267      1246      1248      1249
      1246      1248      1250      1246      1248      1251      1246      1256      1254
      1246      1256      1257      1246      1256      1261      1247      1246      1248
      1247      1246      1256      1248      1246      1256      1248      1251      1252
      1248      1251      1253      1248      1251      1254      1249      1248      1250
      1249      1248      1251      1250      1248      1251      1251      1254      1255
      1251      1254      1256      1251      1254      1280      1252      1251      1253
      1252      1251      1254      1253      1251      1254      1254      1256      1257
      1254      1256      1261      1254      1280      1281      1254      1280      1282
      1254      1280      1286      1255      1254      1256      1255      1254      1280
      1256      1254      1280      1256      1257      1258      1256      1257      1259
      1256      1257      1260      1256      1261      1262      1256      1261      1263
      1256      1261      1264      1257      1256      1261      1258      1257      1259
      1258      1257      1260      1259      1257      1260      1261      1264      1265
      1261      1264      1266      1261      1264      1267      1262      1261      1263
      1262      1261      1264      1263      1261      1264      1264      1267      1268
      1264      1267      1269      1265      1264      1266      1265      1264      1267
      1266      1264      1267      1267      1269      1270      1267      1269      1274
      1268      1267      1269      1269      1270      1271      1269      1270      1272
      1269      1270      1273      1269      1274      1275      1269      1274      1276
      1269      1274      1277      1270      1269      1274      1271      1270      1272
      1271      1270      1273      1272      1270      1273      1274      1277      1278
      1274      1277      1279      1275      1274      1276      1275      1274      1277
      1276      1274      1277      1278      1277      1279      1280      1282      1283
      1280      1282      1284      1280      1282      1285      1280      1286      1287
      1280      1286      1288      1280      1286      1289      1281      1280      1282
      1281      1280      1286      1282      1280      1286      1283      1282      1284
      1283      1282      1285      1284      1282      1285      1286      1289      1290
      1286      1289      1291      1286      1289      1292      1287      1286      1288
      1287      1286      1289      1288      1286      1289      1289      1292      1293
      1289      1292      1294      1289      1292      1295      1290      1289      1291
      1290      1289      1292      1291      1289      1292      1292      1295      1296
      1292      1295      1297      1292      1295      1301      1293      1292      1294
      1293      1292      1295      1294      1292      1295      1295      1297      1298
      1295      1297      1299      1295      1297      1300      1295      1301      1302
      1295      1301      1303      1295      1301      1304      1296      1295      1297
      1296      1295      1301      1297      1295      1301      1298      1297      1299
      1298      1297      1300      1299      1297      1300      1302      1301      1303
      1302      1301      1304      1303      1301      1304      1305      1306      1307
      1305      1306      1308      1305      1306      1321      1305      1309      1310
      1305      1309      1311      1305      1309      1312      1305      1313      1314
      1305      1313      1315      1305      1313      1316      1305      1317      1318
      1305      1317      1319      1305      1317      1320      1306      1305      1309
      1306      1305      1313      1306      1305      1317      1306      1321      1322
      1306      1321      1323      1306      1321      1327      1307      1306      1308
      1307      1306      1321      1308      1306      1321      1309      1305      1313
      1309      1305      1317      1310      1309      1311      1310      1309      1312
      1311      1309      1312      1313      1305      1317      1314      1313      1315
      1314      1313      1316      1315      1313      1316      1318      1317      1319
      1318      1317      1320      1319      1317      1320      1321      1327      1324
      1322      1321      1323      1322      1321      1327      1323      1321      1327
      1324      1328      1329      1325      1324      1326      1325      1324      1327
      1325      1324      1328      1326      1324      1327      1326      1324      1328
      1327      1324      1328      1328      1329      1330      1328      1329      1331
      1328      1329      1332      1329      1332      1333      1329      1332      1334
      1329      1332      1340      1330      1329      1331      1330      1329      1332
      1331      1329      1332      1332      1334      1335      1332      1340      1341
      1332      1340      1342      1332      1340      1343      1333      1332      1334
      1333      1332      1340      1334      1332      1340      1334      1335      1336
      1334      1335      1337      1335      1337      1338      1335      1337      1339
      1335      1337      1349      1336      1335      1337      1337      1349      1350
      1337      1349      1351      1337      1349      1352      1338      1337      1339
      1338      1337      1349      1339      1337      1349      1340      1343      1344
      1341      1340      1342      1341      1340      1343      1342      1340      1343
      1343      1344      1345      1343      1344      1346      1344      1346      1347
      1344      1346      1348      1344      1346      1396      1345      1344      1346
      1346      1396      1397      1346      1396      1398      1346      1396      1399
      1347      1346      1348      1347      1346      1396      1348      1346      1396
      1349      1352      1353      1349      1352      1354      1349      1352      1355
      1350      1349      1351      1350      1349      1352      1351      1349      1352
      1352      1355      1356      1352      1355      1357      1353      1352      1354
      1353      1352      1355      1354      1352      1355      1355      1357      1358
      1355      1357      1359      1356      1355      1357      1357      1359      1360
      1357      1359      1361      1357      1359      1362      1358      1357      1359
      1359      1362      1363      1359      1362      1364      1360      1359      1361
      1360      1359      1362      1361      1359      1362      1362      1364      1365
      1362      1364      1366      1363      1362      1364      1364      1366      1367
      1364      1366      1368      1364      1366      1369      1365      1364      1366
      1366      1369      1370      1366      1369      1371      1367      1366      1368
      1367      1366      1369      1368      1366      1369      1369      1371      1372
      1369      1371      1373      1370      1369      1371      1371      1373      1374
      1371      1373      1375      1371      1373      1376      1372      1371      1373
      1373      1376      1377      1373      1376      1378      1374      1373      1375
      1374      1373      1376      1375      1373      1376      1376      1378      1379
      1376      1378      1380      1377      1376      1378      1378      1380      1381
      1378      1380      1382      1378      1380      1383      1379      1378      1380
      1380      1383      1384      1380      1383      1385      1380      1383      1386
      1381      1380      1382      1381      1380      1383      1382      1380      1383
      1383      1386      1387      1383      1386      1388      1383      1386      1389
      1384      1383      1385      1384      1383      1386      1385      1383      1386
      1386      1389      1390      1386      1389      1391      1386      1389      1392
      1387      1386      1388      1387      1386      1389      1388      1386      1389
      1389      1392      1393      1389      1392      1394      1389      1392      1395
      1390      1389      1391      1390      1389      1392      1391      1389      1392
      1393      1392      1394      1393      1392      1395      1394      1392      1395
      1396      1399      1400      1396      1399      1401      1396      1399      1402
      1397      1396      1398      1397      1396      1399      1398      1396      1399
      1399      1402      1403      1399      1402      1404      1399      1402      1405
      1400      1399      1401      1400      1399      1402      1401      1399      1402
      1402      1405      1406      1402      1405      1407      1402      1405      1408
      1403      1402      1404      1403      1402      1405      1404      1402      1405
      1405      1408      1409      1405      1408      1410      1405      1408      1411
      1406      1405      1407      1406      1405      1408      1407      1405      1408
      1408      1411      1412      1408      1411      1413      1408      1411      1414
      1409      1408      1410      1409      1408      1411      1410      1408      1411
      1411      1414      1415      1411      1414      1416      1411      1414      1417
      1412      1411      1413      1412      1411      1414      1413      1411      1414
      1414      1417      1418      1414      1417      1419      1414      1417      1420
      1415      1414      1416      1415      1414      1417      1416      1414      1417
      1417      1420      1421      1417      1420      1422      1417      1420      1423
      1418      1417      1419      1418      1417      1420      1419      1417      1420
      1420      1423      1424      1420      1423      1425      1420      1423      1426
      1421      1420      1422      1421      1420      1423      1422      1420      1423
      1423      1426      1427      1423      1426      1428      1423      1426      1429
      1424      1423      1425      1424      1423      1426      1425      1423      1426
      1426      1429      1430      1426      1429      1431      1426      1429      1432
      1427      1426      1428      1427      1426      1429      1428      1426      1429
      1429      1432      1433      1429      1432      1434      1429      1432      1435
      1430      1429      1431      1430      1429      1432      1431      1429      1432
      1432      1435      1436      1432      1435      1437      1432      1435      1438
      1433      1432      1434      1433      1432      1435      1434      1432      1435
      1435      1438      1439      1435      1438      1440      1435      1438      1441
      1436      1435      1437      1436      1435      1438      1437      1435      1438
      1438      1441      1442      1438      1441      1443      1438      1441      1444
      1439      1438      1440      1439      1438      1441      1440      1438      1441
      1442      1441      1443      1442      1441      1444      1443      1441      1444
      1445      1446      1447      1445      1446      1448      1445      1446      1449
      1445      1450      1451      1445      1450      1452      1445      1450      1453
      1445      1454      1455      1445      1454      1456      1445      1454      1457
      1445      1458      1459      1445      1458      1460      1445      1458      1461
      1446      1445      1450      1446      1445      1454      1446      1445      1458
      1447      1446      1448      1447      1446      1449      1448      1446      1449
      1450      1445      1454      1450      1445      1458      1451      1450      1452
      1451      1450      1453      1452      1450      1453      1454      1445      1458
      1455      1454      1456      1455      1454      1457      1456      1454      1457
      1458      1461      1462      1458      1461      1463      1458      1461      1467
      1459      1458      1460      1459      1458      1461      1460      1458      1461
      1461      1467      1464      1462      1461      1463      1462      1461      1467
      1463      1461      1467      1464      1468      1469      1465      1464      1466
      1465      1464      1467      1465      1464      1468      1466      1464      1467
      1466      1464      1468      1467      1464      1468      1468      1469      1470
      1468      1469      1471      1468      1469      1472      1469      1472      1473
      1469      1472      1474      1469      1472      1480      1470      1469      1471
      1470      1469      1472      1471      1469      1472      1472      1474      1475
      1472      1480      1481      1472      1480      1482      1472      1480      1483
      1473      1472      1474      1473      1472      1480      1474      1472      1480
      1474      1475      1476      1474      1475      1477      1475      1477      1478
      1475      1477      1479      1475      1477      1489      1476      1475      1477
      1477      1489      1490      1477      1489      1491      1477      1489      1492
      1478      1477      1479      1478      1477      1489      1479      1477      1489
      1480      1483      1484      1481      1480      1482      1481      1480      1483
      1482      1480      1483      1483      1484      1485      1483      1484      1486
      1484      1486      1487      1484      1486      1488      1484      1486      1534
      1485      1484      1486      1486      1534      1535      1486      1534      1536
      1486      1534      1537      1487      1486      1488      1487      1486      1534
      1488      1486      1534      1489      1492      1493      1489      1492      1494
      1489      1492      1495      1490      1489      1491      1490      1489      1492
      1491      1489      1492      1492      1495      1496      1492      1495      1497
      1492      1495      1498      1493      1492      1494      1493      1492      1495
      1494      1492      1495      1495      1498      1499      1495      1498      1500
      1495      1498      1501      1496      1495      1497      1496      1495      1498
      1497      1495      1498      1498      1501      1502      1498      1501      1503
      1498      1501      1504      1499      1498      1500      1499      1498      1501
      1500      1498      1501      1501      1504      1505      1501      1504      1506
      1501      1504      1507      1502      1501      1503      1502      1501      1504
      1503      1501      1504      1504      1507      1508      1504      1507      1509
      1505      1504      1506      1505      1504      1507      1506      1504      1507
      1507      1509      1510      1507      1509      1511      1508      1507      1509
      1509      1511      1512      1509      1511      1513      1509      1511      1514
      1510      1509      1511      1511      1514      1515      1511      1514      1516
      1512      1511      1513      1512      1511      1514      1513      1511      1514
      1514      1516      1517      1514      1516      1518      1515      1514      1516
      1516      1518      1519      1516      1518      1520      1516      1518      1521
      1517      1516      1518      1518      1521      1522      1518      1521      1523
      1518      1521      1524      1519      1518      1520      1519      1518      1521
      1520      1518      1521      1521      1524      1525      1521      1524      1526
      1521      1524      1527      1522      1521      1523      1522      1521      1524
      1523      1521      1524      1524      1527      1528      1524      1527      1529
      1524      1527      1530      1525      1524      1526      1525      1524      1527
      1526      1524      1527      1527      1530      1531      1527      1530      1532
      1527      1530      1533      1528      1527      1529      1528      1527      1530
      1529      1527      1530      1531      1530      1532      1531      1530      1533
      1532      1530      1533      1534      1537      1538      1534      1537      1539
      1534      1537      1540      1535      1534      1536      1535      1534      1537
      1536      1534      1537      1537      1540      1541      1537      1540      1542
      1537      1540      1543      1538      1537      1539      1538      1537      1540
      1539      1537      1540      1540      1543      1544      1540      1543      1545
      1540      1543      1546      1541      1540      1542      1541      1540      1543
      1542      1540      1543      1543      1546      1547      1543      1546      1548
      1543      1546      1549      1544      1543      1545      1544      1543      1546
      1545      1543      1546      1546      1549      1550      1546      1549      1551
      1546      1549      1552      1547      1546      1548      1547      1546      1549
      1548      1546      1549      1549      1552      1553      1549      1552      1554
      1549      1552      1555      1550      1549      1551      1550      1549      1552
      1551      1549      1552      1552      1555      1556      1552      1555      1557
      1552      1555      1558      1553      1552      1554      1553      1552      1555
      1554      1552      1555      1555      1558      1559      1555      1558      1560
      1555      1558      1561      1556      1555      1557      1556      1555      1558
      1557      1555      1558      1558      1561      1562      1558      1561      1563
      1558      1561      1564      1559      1558      1560      1559      1558      1561
      1560      1558      1561      1561      1564      1565      1561      1564      1566
      1561      1564      1567      1562      1561      1563      1562      1561      1564
      1563      1561      1564      1564      1567      1568      1564      1567      1569
      1564      1567      1570      1565      1564      1566      1565      1564      1567
      1566      1564      1567      1567      1570      1571      1567      1570      1572
      1567      1570      1573      1568      1567      1569      1568      1567      1570
      1569      1567      1570      1570      1573      1574      1570      1573      1575
      1570      1573      1576      1571      1570      1572      1571      1570      1573
      1572      1570      1573      1573      1576      1577      1573      1576      1578
      1573      1576      1579      1574      1573      1575      1574      1573      1576
      1575      1573      1576      1576      1579      1580      1576      1579      1581
      1576      1579      1582      1577      1576      1578      1577      1576      1579
      1578      1576      1579      1580      1579      1581      1580      1579      1582
      1581      1579      1582      1583      1584      1585      1583      1584      1586
      1583      1584      1599      1583      1587      1588      1583      1587      1589
      1583      1587      1590      1583      1591      1592      1583      1591      1593
      1583      1591      1594      1583      1595      1596      1583      1595      1597
      1583      1595      1598      1584      1583      1587      1584      1583      1591
      1584      1583      1595      1584      1599      1600      1584      1599      1601
      1584      1599      1605      1585      1584      1586      1585      1584      1599
      1586      1584      1599      1587      1583      1591      1587      1583      1595
      1588      1587      1589      1588      1587      1590      1589      1587      1590
      1591      1583      1595      1592      1591      1593      1592      1591      1594
      1593      1591      1594      1596      1595      1597      1596      1595      1598
      1597      1595      1598      1599      1605      1602      1600      1599      1601
      1600      1599      1605      1601      1599      1605      1602      1606      1607
      1603      1602      1604      1603      1602      1605      1603      1602      1606
      1604      1602      1605      1604      1602      1606      1605      1602      1606
      1606      1607      1608      1606      1607      1609      1606      1607      1610
      1607      1610      1611      1607      1610      1612      1607      1610      1618
      1608      1607      1609      1608      1607      1610      1609      1607      1610
      1610      1612      1613      1610      1618      1619      1610      1618      1620
      1610      1618      1621      1611      1610      1612      1611      1610      1618
      1612      1610      1618      1612      1613      1614      1612      1613      1615
      1613      1615      1616      1613      1615      1617      1613      1615      1627
      1614      1613      1615      1615      1627      1628      1615      1627      1629
      1615      1627      1630      1616      1615      1617      1616      1615      1627
      1617      1615      1627      1618      1621      1622      1619      1618      1620
      1619      1618      1621      1620      1618      1621      1621      1622      1623
      1621      1622      1624      1622      1624      1625      1622      1624      1626
      1622      1624      1674      1623      1622      1624      1624      1674      1675
      1624      1674      1676      1624      1674      1677      1625      1624      1626
      1625      1624      1674      1626      1624      1674      1627      1630      1631
      1627      1630      1632      1627      1630      1633      1628      1627      1629
      1628      1627      1630      1629      1627      1630      1630      1633      1634
      1630      1633      1635      1630      1633      1636      1631      1630      1632
      1631      1630      1633      1632      1630      1633      1633      1636      1637
      1633      1636      1638      1633      1636      1639      1634      1633      1635
      1634      1633      1636      1635      1633      1636      1636      1639      1640
      1636      1639      1641      1636      1639      1642      1637      1636      1638
      1637      1636      1639      1638      1636      1639      1639      1642      1643
      1639      1642      1644      1639      1642      1645      1640      1639      1641
      1640      1639      1642      1641      1639      1642      1642      1645      1646
      1642      1645      1647      1643      1642      1644      1643      1642      1645
      1644      1642      1645      1645      1647      1648      1645      1647      1649
      1646      1645      1647      1647      1649      1650      1647      1649      1651
      1647      1649      1652      1648      1647      1649      1649      1652      1653
      1649      1652      1654      1649      1652      1655      1650      1649      1651
      1650      1649      1652      1651      1649      1652      1652      1655      1656
      1652      1655      1657      1652      1655      1658      1653      1652      1654
      1653      1652      1655      1654      1652      1655      1655      1658      1659
      1655      1658      1660      1655      1658      1661      1656      1655      1657
      1656      1655      1658      1657      1655      1658      1658      1661      1662
      1658      1661      1663      1658      1661      1664      1659      1658      1660
      1659      1658      1661      1660      1658      1661      1661      1664      1665
      1661      1664      1666      1661      1664      1667      1662      1661      1663
      1662      1661      1664      1663      1661      1664      1664      1667      1668
      1664      1667      1669      1664      1667      1670      1665      1664      1666
      1665      1664      1667      1666      1664      1667      1667      1670      1671
      1667      1670      1672      1667      1670      1673      1668      1667      1669
      1668      1667      1670      1669      1667      1670      1671      1670      1672
      1671      1670      1673      1672      1670      1673      1674      1677      1678
      1674      1677      1679      1674      1677      1680      1675      1674      1676
      1675      1674      1677      1676      1674      1677      1677      1680      1681
      1677      1680      1682      1677      1680      1683      1678      1677      1679
      1678      1677      1680      1679      1677      1680      1680      1683      1684
      1680      1683      1685      1680      1683      1686      1681      1680      1682
      1681      1680      1683      1682      1680      1683      1683      1686      1687
      1683      1686      1688      1683      1686      1689      1684      1683      1685
      1684      1683      1686      1685      1683      1686      1686      1689      1690
      1686      1689      1691      1686      1689      1692      1687      1686      1688
      1687      1686      1689      1688      1686      1689      1689      1692      1693
      1689      1692      1694      1689      1692      1695      1690      1689      1691
      1690      1689      1692      1691      1689      1692      1692      1695      1696
      1692      1695      1697      1692      1695      1698      1693      1692      1694
      1693      1692      1695      1694      1692      1695      1695      1698      1699
      1695      1698      1700      1695      1698      1701      1696      1695      1697
      1696      1695      1698      1697      1695      1698      1698      1701      1702
      1698      1701      1703      1698      1701      1704      1699      1698      1700
      1699      1698      1701      1700      1698      1701      1701      1704      1705
      1701      1704      1706      1701      1704      1707      1702      1701      1703
      1702      1701      1704      1703      1701      1704      1704      1707      1708
      1704      1707      1709      1704      1707      1710      1705      1704      1706
      1705      1704      1707      1706      1704      1707      1707      1710      1711
      1707      1710      1712      1707      1710      1713      1708      1707      1709
      1708      1707      1710      1709      1707      1710      1710      1713      1714
      1710      1713      1715      1710      1713      1716      1711      1710      1712
      1711      1710      1713      1712      1710      1713      1714      1713      1715
      1714      1713      1716      1715      1713      1716      1717      1721      1722
      1717      1721      1723      1717      1721      1724      1718      1717      1719
      1718      1717      1720      1718      1717      1721      1719      1717      1720
      1719      1717      1721      1720      1717      1721      1721      1724      1725
      1721      1724      1726      1721      1724      1730      1722      1721      1723
      1722      1721      1724      1723      1721      1724      1724      1730      1727
      1725      1724      1726      1725      1724      1730      1726      1724      1730
      1727      1731      1732      1728      1727      1729      1728      1727      1730
      1728      1727      1731      1729      1727      1730      1729      1727      1731
      1730      1727      1731      1731      1732      1733      1731      1732      1734
      1731      1732      1735      1732      1735      1736      1732      1735      1737
      1732      1735      1743      1733      1732      1734      1733      1732      1735
      1734      1732      1735      1735      1737      1738      1735      1743      1744
      1735      1743      1745      1735      1743      1746      1736      1735      1737
      1736      1735      1743      1737      1735      1743      1737      1738      1739
      1737      1738      1740      1738      1740      1741      1738      1740      1742
      1738      1740      1752      1739      1738      1740      1740      1752      1753
      1740      1752      1754      1740      1752      1755      1741      1740      1742
      1741      1740      1752      1742      1740      1752      1743      1746      1747
      1744      1743      1745      1744      1743      1746      1745      1743      1746
      1746      1747      1748      1746      1747      1749      1747      1749      1750
      1747      1749      1751      1747      1749      1799      1748      1747      1749
      1749      1799      1800      1749      1799      1801      1749      1799      1802
      1750      1749      1751      1750      1749      1799      1751      1749      1799
      1752      1755      1756      1752      1755      1757      1752      1755      1758
      1753      1752      1754      1753      1752      1755      1754      1752      1755
      1755      1758      1759      1755      1758      1760      1755      1758      1761
      1756      1755      1757      1756      1755      1758      1757      1755      1758
      1758      1761      1762      1758      1761      1763      1758      1761      1764
      1759      1758      1760      1759      1758      1761      1760      1758      1761
      1761      1764      1765      1761      1764      1766      1761      1764      1767
      1762      1761      1763      1762      1761      1764      1763      1761      1764
      1764      1767      1768      1764      1767      1769      1764      1767      1770
      1765      1764      1766      1765      1764      1767      1766      1764      1767
      1767      1770      1771      1767      1770      1772      1768      1767      1769
      1768      1767      1770      1769      1767      1770      1770      1772      1773
      1770      1772      1774      1771      1770      1772      1772      1774      1775
      1772      1774      1776      1772      1774      1777      1773      1772      1774
      1774      1777      1778      1774      1777      1779      1774      1777      1780
      1775      1774      1776      1775      1774      1777      1776      1774      1777
      1777      1780      1781      1777      1780      1782      1777      1780      1783
      1778      1777      1779      1778      1777      1780      1779      1777      1780
      1780      1783      1784      1780      1783      1785      1780      1783      1786
      1781      1780      1782      1781      1780      1783      1782      1780      1783
      1783      1786      1787      1783      1786      1788      1783      1786      1789
      1784      1783      1785      1784      1783      1786      1785      1783      1786
      1786      1789      1790      1786      1789      1791      1786      1789      1792
      1787      1786      1788      1787      1786      1789      1788      1786      1789
      1789      1792      1793      1789      1792      1794      1789      1792      1795
      1790      1789      1791      1790      1789      1792      1791      1789      1792
      1792      1795      1796      1792      1795      1797      1792      1795      1798
      1793      1792      1794      1793      1792      1795      1794      1792      1795
      1796      1795      1797      1796      1795      1798      1797      1795      1798
      1799      1802      1803      1799      1802      1804      1799      1802      1805
      1800      1799      1801      1800      1799      1802      1801      1799      1802
      1802      1805      1806      1802      1805      1807      1802      1805      1808
      1803      1802      1804      1803      1802      1805      1804      1802      1805
      1805      1808      1809      1805      1808      1810      1805      1808      1811
      1806      1805      1807      1806      1805      1808      1807      1805      1808
      1808      1811      1812      1808      1811      1813      1808      1811      1814
      1809      1808      1810      1809      1808      1811      1810      1808      1811
      1811      1814      1815      1811      1814      1816      1811      1814      1817
      1812      1811      1813      1812      1811      1814      1813      1811      1814
      1814      1817      1818      1814      1817      1819      1814      1817      1820
      1815      1814      1816      1815      1814      1817      1816      1814      1817
      1817      1820      1821      1817      1820      1822      1817      1820      1823
      1818      1817      1819      1818      1817      1820      1819      1817      1820
      1820      1823      1824      1820      1823      1825      1820      1823      1826
      1821      1820      1822      1821      1820      1823      1822      1820      1823
      1823      1826      1827      1823      1826      1828      1823      1826      1829
      1824      1823      1825      1824      1823      1826      1825      1823      1826
      1826      1829      1830      1826      1829      1831      1826      1829      1832
      1827      1826      1828      1827      1826      1829      1828      1826      1829
      1829      1832      1833      1829      1832      1834      1829      1832      1835
      1830      1829      1831      1830      1829      1832      1831      1829      1832
      1832      1835      1836      1832      1835      1837      1832      1835      1838
      1833      1832      1834      1833      1832      1835      1834      1832      1835
      1835      1838      1839      1835      1838      1840      1835      1838      1841
      1836      1835      1837      1836      1835      1838      1837      1835      1838
      1838      1841      1842      1838      1841      1843      1838      1841      1844
      1839      1838      1840      1839      1838      1841      1840      1838      1841
      1841      1844      1845      1841      1844      1846      1841      1844      1847
      1842      1841      1843      1842      1841      1844      1843      1841      1844
      1845      1844      1846      1845      1844      1847      1846      1844      1847
      1848      1852      1853      1848      1852      1854      1848      1852      1855
      1849      1848      1850      1849      1848      1851      1849      1848      1852
      1850      1848      1851      1850      1848      1852      1851      1848      1852
      1852      1855      1856      1852      1855      1857      1852      1855      1861
      1853      1852      1854      1853      1852      1855      1854      1852      1855
      1855      1861      1858      1856      1855      1857      1856      1855      1861
      1857      1855      1861      1858      1862      1863      1859      1858      1860
      1859      1858      1861      1859      1858      1862      1860      1858      1861
      1860      1858      1862      1861      1858      1862      1862      1863      1864
      1862      1863      1865      1862      1863      1866      1863      1866      1867
      1863      1866      1868      1863      1866      1874      1864      1863      1865
      1864      1863      1866      1865      1863      1866      1866      1868      1869
      1866      1874      1875      1866      1874      1876      1866      1874      1877
      1867      1866      1868      1867      1866      1874      1868      1866      1874
      1868      1869      1870      1868      1869      1871      1869      1871      1872
      1869      1871      1873      1869      1871      1883      1870      1869      1871
      1871      1883      1884      1871      1883      1885      1871      1883      1886
      1872      1871      1873      1872      1871      1883      1873      1871      1883
      1874      1877      1878      1875      1874      1876      1875      1874      1877
      1876      1874      1877      1877      1878      1879      1877      1878      1880
      1878      1880      1881      1878      1880      1882      1878      1880      1930
      1879      1878      1880      1880      1930      1931      1880      1930      1932
      1880      1930      1933      1881      1880      1882      1881      1880      1930
      1882      1880      1930      1883      1886      1887      1883      1886      1888
      1883      1886      1889      1884      1883      1885      1884      1883      1886
      1885      1883      1886      1886      1889      1890      1886      1889      1891
      1887      1886      1888      1887      1886      1889      1888      1886      1889
      1889      1891      1892      1889      1891      1893      1890      1889      1891
      1891      1893      1894      1891      1893      1895      1891      1893      1896
      1892      1891      1893      1893      1896      1897      1893      1896      1898
      1894      1893      1895      1894      1893      1896      1895      1893      1896
      1896      1898      1899      1896      1898      1900      1897      1896      1898
      1898      1900      1901      1898      1900      1902      1898      1900      1903
      1899      1898      1900      1900      1903      1904      1900      1903      1905
      1901      1900      1902      1901      1900      1903      1902      1900      1903
      1903      1905      1906      1903      1905      1907      1904      1903      1905
      1905      1907      1908      1905      1907      1909      1905      1907      1910
      1906      1905      1907      1907      1910      1911      1907      1910      1912
      1908      1907      1909      1908      1907      1910      1909      1907      1910
      1910      1912      1913      1910      1912      1914      1911      1910      1912
      1912      1914      1915      1912      1914      1916      1912      1914      1917
      1913      1912      1914      1914      1917      1918      1914      1917      1919
      1914      1917      1920      1915      1914      1916      1915      1914      1917
      1916      1914      1917      1917      1920      1921      1917      1920      1922
      1917      1920      1923      1918      1917      1919      1918      1917      1920
      1919      1917      1920      1920      1923      1924      1920      1923      1925
      1920      1923      1926      1921      1920      1922      1921      1920      1923
      1922      1920      1923      1923      1926      1927      1923      1926      1928
      1923      1926      1929      1924      1923      1925      1924      1923      1926
      1925      1923      1926      1927      1926      1928      1927      1926      1929
      1928      1926      1929      1930      1933      1934      1930      1933      1935
      1930      1933      1936      1931      1930      1932      1931      1930      1933
      1932      1930      1933      1933      1936      1937      1933      1936      1938
      1933      1936      1939      1934      1933      1935      1934      1933      1936
      1935      1933      1936      1936      1939      1940      1936      1939      1941
      1936      1939      1942      1937      1936      1938      1937      1936      1939
      1938      1936      1939      1939      1942      1943      1939      1942      1944
      1939      1942      1945      1940      1939      1941      1940      1939      1942
      1941      1939      1942      1942      1945      1946      1942      1945      1947
      1942      1945      1948      1943      1942      1944      1943      1942      1945
      1944      1942      1945      1945      1948      1949      1945      1948      1950
      1945      1948      1951      1946      1945      1947      1946      1945      1948
      1947      1945      1948      1948      1951      1952      1948      1951      1953
      1948      1951      1954      1949      1948      1950      1949      1948      1951
      1950      1948      1951      1951      1954      1955      1951      1954      1956
      1951      1954      1957      1952      1951      1953      1952      1951      1954
      1953      1951      1954      1954      1957      1958      1954      1957      1959
      1954      1957      1960      1955      1954      1956      1955      1954      1957
      1956      1954      1957      1957      1960      1961      1957      1960      1962
      1957      1960      1963      1958      1957      1959      1958      1957      1960
      1959      1957      1960      1960      1963      1964      1960      1963      1965
      1960      1963      1966      1961      1960      1962      1961      1960      1963
      1962      1960      1963      1963      1966      1967      1963      1966      1968
      1963      1966      1969      1964      1963      1965      1964      1963      1966
      1965      1963      1966      1966      1969      1970      1966      1969      1971
      1966      1969      1972      1967      1966      1968      1967      1966      1969
      1968      1966      1969      1969      1972      1973      1969      1972      1974
      1969      1972      1975      1970      1969      1971      1970      1969      1972
      1971      1969      1972      1972      1975      1976      1972      1975      1977
      1972      1975      1978      1973      1972      1974      1973      1972      1975
      1974      1972      1975      1976      1975      1977      1976      1975      1978
      1977      1975      1978      1979      1981      1982      1979      1983      1984
      1979      1983      1985      1979      1983      1986      1979      2025      2022
      1979      2025      2026      1979      2025      2027      1980      1979      1981
      1980      1979      1983      1980      1979      2025      1981      1979      1983
      1981      1979      2025      1983      1979      2025      1983      1986      1987
      1983      1986      2017      1984      1983      1985      1984      1983      1986
      1985      1983      1986      1986      1987      1988      1986      1987      1989
      1986      2017      2015      1986      2017      2018      1986      2017      2022
      1987      1986      2017      1987      1989      1990      1987      1989      1991
      1987      1989      1992      1988      1987      1989      1989      1992      1993
      1989      1992      1994      1989      1992      2015      1990      1989      1991
      1990      1989      1992      1991      1989      1992      1992      1994      1995
      1992      1994      1996      1992      1994      2004      1992      2015      2012
      1992      2015      2016      1992      2015      2017      1993      1992      1994
      1993      1992      2015      1994      1992      2015      1994      1996      1997
      1994      1996      1998      1994      1996      1999      1994      2004      2002
      1994      2004      2005      1994      2004      2009      1995      1994      1996
      1995      1994      2004      1996      1994      2004      1996      1999      2000
      1996      1999      2001      1996      1999      2002      1997      1996      1998
      1997      1996      1999      1998      1996      1999      1999      2002      2003
      1999      2002      2004      1999      2002      2028      2000      1999      2001
      2000      1999      2002      2001      1999      2002      2002      2004      2005
      2002      2004      2009      2002      2028      2029      2002      2028      2030
      2002      2028      2034      2003      2002      2004      2003      2002      2028
      2004      2002      2028      2004      2005      2006      2004      2005      2007
      2004      2005      2008      2004      2009      2010      2004      2009      2011
      2004      2009      2012      2005      2004      2009      2006      2005      2007
      2006      2005      2008      2007      2005      2008      2009      2012      2013
      2009      2012      2014      2009      2012      2015      2010      2009      2011
      2010      2009      2012      2011      2009      2012      2012      2015      2016
      2012      2015      2017      2013      2012      2014      2013      2012      2015
      2014      2012      2015      2015      2017      2018      2015      2017      2022
      2016      2015      2017      2017      2018      2019      2017      2018      2020
      2017      2018      2021      2017      2022      2023      2017      2022      2024
      2017      2022      2025      2018      2017      2022      2019      2018      2020
      2019      2018      2021      2020      2018      2021      2022      2025      2026
      2022      2025      2027      2023      2022      2024      2023      2022      2025
      2024      2022      2025      2026      2025      2027      2028      2030      2031
      2028      2030      2032      2028      2030      2033      2028      2034      2035
      2028      2034      2036      2028      2034      2037      2029      2028      2030
      2029      2028      2034      2030      2028      2034      2031      2030      2032
      2031      2030      2033      2032      2030      2033      2034      2037      2038
      2034      2037      2039      2034      2037      2040      2035      2034      2036
      2035      2034      2037      2036      2034      2037      2037      2040      2041
      2037      2040      2042      2037      2040      2043      2038      2037      2039
      2038      2037      2040      2039      2037      2040      2040      2043      2044
      2040      2043      2045      2040      2043      2049      2041      2040      2042
      2041      2040      2043      2042      2040      2043      2043      2045      2046
      2043      2045      2047      2043      2045      2048      2043      2049      2050
      2043      2049      2051      2043      2049      2052      2044      2043      2045
      2044      2043      2049      2045      2043      2049      2046      2045      2047
      2046      2045      2048      2047      2045      2048      2050      2049      2051
      2050      2049      2052      2051      2049      2052      2053      2054      2055
      2053      2054      2056      2053      2054      2057      2053      2058      2059
      2053      2058      2060      2053      2058      2061      2053      2062      2063
      2053      2062      2064      2053      2062      2065      2053      2066      2067
      2053      2066      2068      2053      2066      2069      2054      2053      2058
      2054      2053      2062      2054      2053      2066      2055      2054      2056
      2055      2054      2057      2056      2054      2057      2058      2053      2062
      2058      2053      2066      2059      2058      2060      2059      2058      2061
      2060      2058      2061      2062      2053      2066      2063      2062      2064
      2063      2062      2065      2064      2062      2065      2066      2069      2070
      2066      2069      2071      2066      2069      2076      2067      2066      2068
      2067      2066      2069      2068      2066      2069      2069      2076      2072
      2070      2069      2071      2070      2069      2076      2071      2069      2076
      2072      2075      2077      2073      2072      2074      2073      2072      2075
      2073      2072      2076      2074      2072      2075      2074      2072      2076
      2075      2072      2076      2075      2077      2078      2075      2077      2079
      2075      2077      2082      2077      2082      2080      2077      2082      2083
      2077      2082      2084      2078      2077      2079      2078      2077      2082
      2079      2077      2082      2080      2082      2083      2080      2082      2084
      2080      2132      2133      2080      2132      2134      2081      2080      2082
      2081      2080      2132      2082      2080      2132      2082      2084      2085
      2082      2084      2086      2082      2084      2088      2083      2082      2084
      2084      2086      2087      2084      2088      2089      2084      2088      2090
      2085      2084      2086      2085      2084      2088      2086      2084      2088
      2088      2090      2091      2088      2090      2092      2089      2088      2090
      2090      2092      2093      2090      2092      2094      2090      2092      2095
      2091      2090      2092      2092      2095      2096      2092      2095      2097
      2092      2095      2098      2093      2092      2094      2093      2092      2095
      2094      2092      2095      2095      2098      2099      2095      2098      2100
      2095      2098      2101      2096      2095      2097      2096      2095      2098
      2097      2095      2098      2098      2101      2102      2098      2101      2103
      2098      2101      2104      2099      2098      2100      2099      2098      2101
      2100      2098      2101      2101      2104      2105      2101      2104      2106
      2101      2104      2107      2102      2101      2103      2102      2101      2104
      2103      2101      2104      2104      2107      2108      2104      2107      2109
      2104      2107      2110      2105      2104      2106      2105      2104      2107
      2106      2104      2107      2107      2110      2111      2107      2110      2112
      2107      2110      2113      2108      2107      2109      2108      2107      2110
      2109      2107      2110      2110      2113      2114      2110      2113      2115
      2110      2113      2116      2111      2110      2112      2111      2110      2113
      2112      2110      2113      2113      2116      2117      2113      2116      2118
      2113      2116      2119      2114      2113      2115      2114      2113      2116
      2115      2113      2116      2116      2119      2120      2116      2119      2121
      2116      2119      2122      2117      2116      2118      2117      2116      2119
      2118      2116      2119      2119      2122      2123      2119      2122      2124
      2119      2122      2125      2120      2119      2121      2120      2119      2122
      2121      2119      2122      2122      2125      2126      2122      2125      2127
      2122      2125      2128      2123      2122      2124      2123      2122      2125
      2124      2122      2125      2125      2128      2129      2125      2128      2130
      2125      2128      2131      2126      2125      2127      2126      2125      2128
      2127      2125      2128      2129      2128      2130      2129      2128      2131
      2130      2128      2131      2132      2134      2135      2132      2134      2136
      2132      2134      2137      2133      2132      2134      2134      2137      2138
      2134      2137      2139      2134      2137      2140      2135      2134      2136
      2135      2134      2137      2136      2134      2137      2137      2140      2141
      2137      2140      2142      2137      2140      2143      2138      2137      2139
      2138      2137      2140      2139      2137      2140      2140      2143      2144
      2140      2143      2145      2140      2143      2146      2141      2140      2142
      2141      2140      2143      2142      2140      2143      2143      2146      2147
      2143      2146      2148      2143      2146      2149      2144      2143      2145
      2144      2143      2146      2145      2143      2146      2146      2149      2150
      2146      2149      2151      2146      2149      2152      2147      2146      2148
      2147      2146      2149      2148      2146      2149      2149      2152      2153
      2149      2152      2154      2149      2152      2155      2150      2149      2151
      2150      2149      2152      2151      2149      2152      2152      2155      2156
      2152      2155      2157      2153      2152      2154      2153      2152      2155
      2154      2152      2155      2155      2157      2158      2155      2157      2159
      2156      2155      2157      2157      2159      2160      2157      2159      2161
      2157      2159      2162      2158      2157      2159      2159      2162      2163
      2159      2162      2164      2159      2162      2165      2160      2159      2161
      2160      2159      2162      2161      2159      2162      2162      2165      2166
      2162      2165      2167      2162      2165      2168      2163      2162      2164
      2163      2162      2165      2164      2162      2165      2165      2168      2169
      2165      2168      2170      2165      2168      2171      2166      2165      2167
      2166      2165      2168      2167      2165      2168      2168      2171      2172
      2168      2171      2173      2168      2171      2174      2169      2168      2170
      2169      2168      2171      2170      2168      2171      2171      2174      2175
      2171      2174      2176      2171      2174      2177      2172      2171      2173
      2172      2171      2174      2173      2171      2174      2174      2177      2178
      2174      2177      2179      2174      2177      2180      2175      2174      2176
      2175      2174      2177      2176      2174      2177      2177      2180      2181
      2177      2180      2182      2177      2180      2183      2178      2177      2179
      2178      2177      2180      2179      2177      2180      2181      2180      2182
      2181      2180      2183      2182      2180      2183      2184      2186      2187
      2184      2188      2189      2184      2188      2190      2184      2188      2191
      2184      2230      2227      2184      2230      2231      2184      2230      2232
      2185      2184      2186      2185      2184      2188      2185      2184      2230
      2186      2184      2188      2186      2184      2230      2188      2184      2230
      2188      2191      2192      2188      2191      2222      2189      2188      2190
      2189      2188      2191      2190      2188      2191      2191      2192      2193
      2191      2192      2194      2191      2222      2220      2191      2222      2223
      2191      2222      2227      2192      2191      2222      2192      2194      2195
      2192      2194      2196      2192      2194      2197      2193      2192      2194
      2194      2197      2198      2194      2197      2199      2194      2197      2220
      2195      2194      2196      2195      2194      2197      2196      2194      2197
      2197      2199      2200      2197      2199      2201      2197      2199      2209
      2197      2220      2217      2197      2220      2221      2197      2220      2222
      2198      2197      2199      2198      2197      2220      2199      2197      2220
      2199      2201      2202      2199      2201      2203      2199      2201      2204
      2199      2209      2207      2199      2209      2210      2199      2209      2214
      2200      2199      2201      2200      2199      2209      2201      2199      2209
      2201      2204      2205      2201      2204      2206      2201      2204      2207
      2202      2201      2203      2202      2201      2204      2203      2201      2204
      2204      2207      2208      2204      2207      2209      2204      2207      2233
      2205      2204      2206      2205      2204      2207      2206      2204      2207
      2207      2209      2210      2207      2209      2214      2207      2233      2234
      2207      2233      2235      2207      2233      2239      2208      2207      2209
      2208      2207      2233      2209      2207      2233      2209      2210      2211
      2209      2210      2212      2209      2210      2213      2209      2214      2215
      2209      2214      2216      2209      2214      2217      2210      2209      2214
      2211      2210      2212      2211      2210      2213      2212      2210      2213
      2214      2217      2218      2214      2217      2219      2214      2217      2220
      2215      2214      2216      2215      2214      2217      2216      2214      2217
      2217      2220      2221      2217      2220      2222      2218      2217      2219
      2218      2217      2220      2219      2217      2220      2220      2222      2223
      2220      2222      2227      2221      2220      2222      2222      2223      2224
      2222      2223      2225      2222      2223      2226      2222      2227      2228
      2222      2227      2229      2222      2227      2230      2223      2222      2227
      2224      2223      2225      2224      2223      2226      2225      2223      2226
      2227      2230      2231      2227      2230      2232      2228      2227      2229
      2228      2227      2230      2229      2227      2230      2231      2230      2232
      2233      2235      2236      2233      2235      2237      2233      2235      2238
      2233      2239      2240      2233      2239      2241      2233      2239      2242
      2234      2233      2235      2234      2233      2239      2235      2233      2239
      2236      2235      2237      2236      2235      2238      2237      2235      2238
      2239      2242      2243      2239      2242      2244      2239      2242      2245
      2240      2239      2241      2240      2239      2242      2241      2239      2242
      2242      2245      2246      2242      2245      2247      2242      2245      2248
      2243      2242      2244      2243      2242      2245      2244      2242      2245
      2245      2248      2249      2245      2248      2250      2245      2248      2254
      2246      2245      2247      2246      2245      2248      2247      2245      2248
      2248      2250      2251      2248      2250      2252      2248      2250      2253
      2248      2254      2255      2248      2254      2256      2248      2254      2257
      2249      2248      2250      2249      2248      2254      2250      2248      2254
      2251      2250      2252      2251      2250      2253      2252      2250      2253
      2255      2254      2256      2255      2254      2257      2256      2254      2257
      2258      2260      2261      2258      2262      2263      2258      2262      2264
      2258      2262      2265      2258      2304      2301      2258      2304      2305
      2258      2304      2306      2259      2258      2260      2259      2258      2262
      2259      2258      2304      2260      2258      2262      2260      2258      2304
      2262      2258      2304      2262      2265      2266      2262      2265      2296
      2263      2262      2264      2263      2262      2265      2264      2262      2265
      2265      2266      2267      2265      2266      2268      2265      2296      2294
      2265      2296      2297      2265      2296      2301      2266      2265      2296
      2266      2268      2269      2266      2268      2270      2266      2268      2271
      2267      2266      2268      2268      2271      2272      2268      2271      2273
      2268      2271      2294      2269      2268      2270      2269      2268      2271
      2270      2268      2271      2271      2273      2274      2271      2273      2275
      2271      2273      2283      2271      2294      2291      2271      2294      2295
      2271      2294      2296      2272      2271      2273      2272      2271      2294
      2273      2271      2294      2273      2275      2276      2273      2275      2277
      2273      2275      2278      2273      2283      2281      2273      2283      2284
      2273      2283      2288      2274      2273      2275      2274      2273      2283
      2275      2273      2283      2275      2278      2279      2275      2278      2280
      2275      2278      2281      2276      2275      2277      2276      2275      2278
      2277      2275      2278      2278      2281      2282      2278      2281      2283
      2278      2281      2307      2279      2278      2280      2279      2278      2281
      2280      2278      2281      2281      2283      2284      2281      2283      2288
      2281      2307      2308      2281      2307      2309      2281      2307      2313
      2282      2281      2283      2282      2281      2307      2283      2281      2307
      2283      2284      2285      2283      2284      2286      2283      2284      2287
      2283      2288      2289      2283      2288      2290      2283      2288      2291
      2284      2283      2288      2285      2284      2286      2285      2284      2287
      2286      2284      2287      2288      2291      2292      2288      2291      2293
      2288      2291      2294      2289      2288      2290      2289      2288      2291
      2290      2288      2291      2291      2294      2295      2291      2294      2296
      2292      2291      2293      2292      2291      2294      2293      2291      2294
      2294      2296      2297      2294      2296      2301      2295      2294      2296
      2296      2297      2298      2296      2297      2299      2296      2297      2300
      2296      2301      2302      2296      2301      2303      2296      2301      2304
      2297      2296      2301      2298      2297      2299      2298      2297      2300
      2299      2297      2300      2301      2304      2305      2301      2304      2306
      2302      2301      2303      2302      2301      2304      2303      2301      2304
      2305      2304      2306      2307      2309      2310      2307      2309      2311
      2307      2309      2312      2307      2313      2314      2307      2313      2315
      2307      2313      2316      2308      2307      2309      2308      2307      2313
      2309      2307      2313      2310      2309      2311      2310      2309      2312
      2311      2309      2312      2313      2316      2317      2313      2316      2318
      2313      2316      2319      2314      2313      2315      2314      2313      2316
      2315      2313      2316      2316      2319      2320      2316      2319      2321
      2316      2319      2322      2317      2316      2318      2317      2316      2319
      2318      2316      2319      2319      2322      2323      2319      2322      2324
      2319      2322      2328      2320      2319      2321      2320      2319      2322
      2321      2319      2322      2322      2324      2325      2322      2324      2326
      2322      2324      2327      2322      2328      2329      2322      2328      2330
      2322      2328      2331      2323      2322      2324      2323      2322      2328
      2324      2322      2328      2325      2324      2326      2325      2324      2327
      2326      2324      2327      2329      2328      2330      2329      2328      2331
      2330      2328      2331      2332      2334      2335      2332      2336      2337
      2332      2336      2338      2332      2336      2339      2332      2378      2375
      2332      2378      2379      2332      2378      2380      2333      2332      2334
      2333      2332      2336      2333      2332      2378      2334      2332      2336
      2334      2332      2378      2336      2332      2378      2336      2339      2340
      2336      2339      2370      2337      2336      2338      2337      2336      2339
      2338      2336      2339      2339      2340      2341      2339      2340      2342
      2339      2370      2368      2339      2370      2371      2339      2370      2375
      2340      2339      2370      2340      2342      2343      2340      2342      2344
      2340      2342      2345      2341      2340      2342      2342      2345      2346
      2342      2345      2347      2342      2345      2368      2343      2342      2344
      2343      2342      2345      2344      2342      2345      2345      2347      2348
      2345      2347      2349      2345      2347      2357      2345      2368      2365
      2345      2368      2369      2345      2368      2370      2346      2345      2347
      2346      2345      2368      2347      2345      2368      2347      2349      2350
      2347      2349      2351      2347      2349      2352      2347      2357      2355
      2347      2357      2358      2347      2357      2362      2348      2347      2349
      2348      2347      2357      2349      2347      2357      2349      2352      2353
      2349      2352      2354      2349      2352      2355      2350      2349      2351
      2350      2349      2352      2351      2349      2352      2352      2355      2356
      2352      2355      2357      2352      2355      2381      2353      2352      2354
      2353      2352      2355      2354      2352      2355      2355      2357      2358
      2355      2357      2362      2355      2381      2382      2355      2381      2383
      2355      2381      2387      2356      2355      2357      2356      2355      2381
      2357      2355      2381      2357      2358      2359      2357      2358      2360
      2357      2358      2361      2357      2362      2363      2357      2362      2364
      2357      2362      2365      2358      2357      2362      2359      2358      2360
      2359      2358      2361      2360      2358      2361      2362      2365      2366
      2362      2365      2367      2362      2365      2368      2363      2362      2364
      2363      2362      2365      2364      2362      2365      2365      2368      2369
      2365      2368      2370      2366      2365      2367      2366      2365      2368
      2367      2365      2368      2368      2370      2371      2368      2370      2375
      2369      2368      2370      2370      2371      2372      2370      2371      2373
      2370      2371      2374      2370      2375      2376      2370      2375      2377
      2370      2375      2378      2371      2370      2375      2372      2371      2373
      2372      2371      2374      2373      2371      2374      2375      2378      2379
      2375      2378      2380      2376      2375      2377      2376      2375      2378
      2377      2375      2378      2379      2378      2380      2381      2383      2384
      2381      2383      2385      2381      2383      2386      2381      2387      2388
      2381      2387      2389      2381      2387      2390      2382      2381      2383
      2382      2381      2387      2383      2381      2387      2384      2383      2385
      2384      2383      2386      2385      2383      2386      2387      2390      2391
      2387      2390      2392      2387      2390      2393      2388      2387      2389
      2388      2387      2390      2389      2387      2390      2390      2393      2394
      2390      2393      2395      2390      2393      2396      2391      2390      2392
      2391      2390      2393      2392      2390      2393      2393      2396      2397
      2393      2396      2398      2393      2396      2402      2394      2393      2395
      2394      2393      2396      2395      2393      2396      2396      2398      2399
      2396      2398      2400      2396      2398      2401      2396      2402      2403
      2396      2402      2404      2396      2402      2405      2397      2396      2398
      2397      2396      2402      2398      2396      2402      2399      2398      2400
      2399      2398      2401      2400      2398      2401      2403      2402      2404
      2403      2402      2405      2404      2402      2405      2406      2410      2411
      2406      2410      2412      2406      2410      2415      2407      2406      2408
      2407      2406      2409      2407      2406      2410      2408      2406      2409
      2408      2406      2410      2409      2406      2410      2410      2412      2413
      2410      2412      2414      2410      2415      2416      2410      2415      2417
      2410      2415      2421      2411      2410      2412      2411      2410      2415
      2412      2410      2415      2413      2412      2414      2415      2421      2418
      2416      2415      2417      2416      2415      2421      2417      2415      2421
      2418      2422      2423      2419      2418      2420      2419      2418      2421
      2419      2418      2422      2420      2418      2421      2420      2418      2422
      2421      2418      2422      2422      2423      2424      2422      2423      2425
      2422      2423      2426      2423      2426      2427      2423      2426      2428
      2423      2426      2434      2424      2423      2425      2424      2423      2426
      2425      2423      2426      2426      2428      2429      2426      2434      2435
      2426      2434      2436      2426      2434      2437      2427      2426      2428
      2427      2426      2434      2428      2426      2434      2428      2429      2430
      2428      2429      2431      2429      2431      2432      2429      2431      2433
      2429      2431      2443      2430      2429      2431      2431      2443      2444
      2431      2443      2445      2431      2443      2446      2432      2431      2433
      2432      2431      2443      2433      2431      2443      2434      2437      2438
      2435      2434      2436      2435      2434      2437      2436      2434      2437
      2437      2438      2439      2437      2438      2440      2438      2440      2441
      2438      2440      2442      2438      2440      2490      2439      2438      2440
      2440      2490      2491      2440      2490      2492      2440      2490      2493
      2441      2440      2442      2441      2440      2490      2442      2440      2490
      2443      2446      2447      2443      2446      2448      2443      2446      2449
      2444      2443      2445      2444      2443      2446      2445      2443      2446
      2446      2449      2450      2446      2449      2451      2447      2446      2448
      2447      2446      2449      2448      2446      2449      2449      2451      2452
      2449      2451      2453      2450      2449      2451      2451      2453      2454
      2451      2453      2455      2451      2453      2456      2452      2451      2453
      2453      2456      2457      2453      2456      2458      2454      2453      2455
      2454      2453      2456      2455      2453      2456      2456      2458      2459
      2456      2458      2460      2457      2456      2458      2458      2460      2461
      2458      2460      2462      2458      2460      2463      2459      2458      2460
      2460      2463      2464      2460      2463      2465      2461      2460      2462
      2461      2460      2463      2462      2460      2463      2463      2465      2466
      2463      2465      2467      2464      2463      2465      2465      2467      2468
      2465      2467      2469      2465      2467      2470      2466      2465      2467
      2467      2470      2471      2467      2470      2472      2468      2467      2469
      2468      2467      2470      2469      2467      2470      2470      2472      2473
      2470      2472      2474      2471      2470      2472      2472      2474      2475
      2472      2474      2476      2472      2474      2477      2473      2472      2474
      2474      2477      2478      2474      2477      2479      2474      2477      2480
      2475      2474      2476      2475      2474      2477      2476      2474      2477
      2477      2480      2481      2477      2480      2482      2477      2480      2483
      2478      2477      2479      2478      2477      2480      2479      2477      2480
      2480      2483      2484      2480      2483      2485      2480      2483      2486
      2481      2480      2482      2481      2480      2483      2482      2480      2483
      2483      2486      2487      2483      2486      2488      2483      2486      2489
      2484      2483      2485      2484      2483      2486      2485      2483      2486
      2487      2486      2488      2487      2486      2489      2488      2486      2489
      2490      2493      2494      2490      2493      2495      2490      2493      2496
      2491      2490      2492      2491      2490      2493      2492      2490      2493
      2493      2496      2497      2493      2496      2498      2493      2496      2499
      2494      2493      2495      2494      2493      2496      2495      2493      2496
      2496      2499      2500      2496      2499      2501      2496      2499      2502
      2497      2496      2498      2497      2496      2499      2498      2496      2499
      2499      2502      2503      2499      2502      2504      2499      2502      2505
      2500      2499      2501      2500      2499      2502      2501      2499      2502
      2502      2505      2506      2502      2505      2507      2502      2505      2508
      2503      2502      2504      2503      2502      2505      2504      2502      2505
      2505      2508      2509      2505      2508      2510      2505      2508      2511
      2506      2505      2507      2506      2505      2508      2507      2505      2508
      2508      2511      2512      2508      2511      2513      2508      2511      2514
      2509      2508      2510      2509      2508      2511      2510      2508      2511
      2511      2514      2515      2511      2514      2516      2511      2514      2517
      2512      2511      2513      2512      2511      2514      2513      2511      2514
      2514      2517      2518      2514      2517      2519      2514      2517      2520
      2515      2514      2516      2515      2514      2517      2516      2514      2517
      2517      2520      2521      2517      2520      2522      2517      2520      2523
      2518      2517      2519      2518      2517      2520      2519      2517      2520
      2520      2523      2524      2520      2523      2525      2520      2523      2526
      2521      2520      2522      2521      2520      2523      2522      2520      2523
      2523      2526      2527      2523      2526      2528      2523      2526      2529
      2524      2523      2525      2524      2523      2526      2525      2523      2526
      2526      2529      2530      2526      2529      2531      2526      2529      2532
      2527      2526      2528      2527      2526      2529      2528      2526      2529
      2529      2532      2533      2529      2532      2534      2529      2532      2535
      2530      2529      2531      2530      2529      2532      2531      2529      2532
      2532      2535      2536      2532      2535      2537      2532      2535      2538
      2533      2532      2534      2533      2532      2535      2534      2532      2535
      2536      2535      2537      2536      2535      2538      2537      2535      2538
      2539      2541      2542      2539      2543      2544      2539      2543      2545
      2539      2543      2546      2539      2585      2582      2539      2585      2586
      2539      2585      2587      2540      2539      2541      2540      2539      2543
      2540      2539      2585      2541      2539      2543      2541      2539      2585
      2543      2539      2585      2543      2546      2547      2543      2546      2577
      2544      2543      2545      2544      2543      2546      2545      2543      2546
      2546      2547      2548      2546      2547      2549      2546      2577      2575
      2546      2577      2578      2546      2577      2582      2547      2546      2577
      2547      2549      2550      2547      2549      2551      2547      2549      2552
      2548      2547      2549      2549      2552      2553      2549      2552      2554
      2549      2552      2575      2550      2549      2551      2550      2549      2552
      2551      2549      2552      2552      2554      2555      2552      2554      2556
      2552      2554      2564      2552      2575      2572      2552      2575      2576
      2552      2575      2577      2553      2552      2554      2553      2552      2575
      2554      2552      2575      2554      2556      2557      2554      2556      2558
      2554      2556      2559      2554      2564      2562      2554      2564      2565
      2554      2564      2569      2555      2554      2556      2555      2554      2564
      2556      2554      2564      2556      2559      2560      2556      2559      2561
      2556      2559      2562      2557      2556      2558      2557      2556      2559
      2558      2556      2559      2559      2562      2563      2559      2562      2564
      2559      2562      2588      2560      2559      2561      2560      2559      2562
      2561      2559      2562      2562      2564      2565      2562      2564      2569
      2562      2588      2589      2562      2588      2590      2562      2588      2594
      2563      2562      2564      2563      2562      2588      2564      2562      2588
      2564      2565      2566      2564      2565      2567      2564      2565      2568
      2564      2569      2570      2564      2569      2571      2564      2569      2572
      2565      2564      2569      2566      2565      2567      2566      2565      2568
      2567      2565      2568      2569      2572      2573      2569      2572      2574
      2569      2572      2575      2570      2569      2571      2570      2569      2572
      2571      2569      2572      2572      2575      2576      2572      2575      2577
      2573      2572      2574      2573      2572      2575      2574      2572      2575
      2575      2577      2578      2575      2577      2582      2576      2575      2577
      2577      2578      2579      2577      2578      2580      2577      2578      2581
      2577      2582      2583      2577      2582      2584      2577      2582      2585
      2578      2577      2582      2579      2578      2580      2579      2578      2581
      2580      2578      2581      2582      2585      2586      2582      2585      2587
      2583      2582      2584      2583      2582      2585      2584      2582      2585
      2586      2585      2587      2588      2590      2591      2588      2590      2592
      2588      2590      2593      2588      2594      2595      2588      2594      2596
      2588      2594      2597      2589      2588      2590      2589      2588      2594
      2590      2588      2594      2591      2590      2592      2591      2590      2593
      2592      2590      2593      2594      2597      2598      2594      2597      2599
      2594      2597      2600      2595      2594      2596      2595      2594      2597
      2596      2594      2597      2597      2600      2601      2597      2600      2602
      2597      2600      2603      2598      2597      2599      2598      2597      2600
      2599      2597      2600      2600      2603      2604      2600      2603      2605
      2600      2603      2609      2601      2600      2602      2601      2600      2603
      2602      2600      2603      2603      2605      2606      2603      2605      2607
      2603      2605      2608      2603      2609      2610      2603      2609      2611
      2603      2609      2612      2604      2603      2605      2604      2603      2609
      2605      2603      2609      2606      2605      2607      2606      2605      2608
      2607      2605      2608      2610      2609      2611      2610      2609      2612
      2611      2609      2612      2613      2614      2615      2613      2614      2616
      2613      2614      2629      2613      2617      2618      2613      2617      2619
      2613      2617      2620      2613      2621      2622      2613      2621      2623
      2613      2621      2624      2613      2625      2626      2613      2625      2627
      2613      2625      2628      2614      2613      2617      2614      2613      2621
      2614      2613      2625      2614      2629      2630      2614      2629      2631
      2614      2629      2635      2615      2614      2616      2615      2614      2629
      2616      2614      2629      2617      2613      2621      2617      2613      2625
      2618      2617      2619      2618      2617      2620      2619      2617      2620
      2621      2613      2625      2622      2621      2623      2622      2621      2624
      2623      2621      2624      2626      2625      2627      2626      2625      2628
      2627      2625      2628      2629      2635      2632      2630      2629      2631
      2630      2629      2635      2631      2629      2635      2632      2636      2637
      2633      2632      2634      2633      2632      2635      2633      2632      2636
      2634      2632      2635      2634      2632      2636      2635      2632      2636
      2636      2637      2638      2636      2637      2639      2636      2637      2640
      2637      2640      2641      2637      2640      2642      2637      2640      2648
      2638      2637      2639      2638      2637      2640      2639      2637      2640
      2640      2642      2643      2640      2648      2649      2640      2648      2650
      2640      2648      2651      2641      2640      2642      2641      2640      2648
      2642      2640      2648      2642      2643      2644      2642      2643      2645
      2643      2645      2646      2643      2645      2647      2643      2645      2657
      2644      2643      2645      2645      2657      2658      2645      2657      2659
      2645      2657      2660      2646      2645      2647      2646      2645      2657
      2647      2645      2657      2648      2651      2652      2649      2648      2650
      2649      2648      2651      2650      2648      2651      2651      2652      2653
      2651      2652      2654      2652      2654      2655      2652      2654      2656
      2652      2654      2704      2653      2652      2654      2654      2704      2705
      2654      2704      2706      2654      2704      2707      2655      2654      2656
      2655      2654      2704      2656      2654      2704      2657      2660      2661
      2657      2660      2662      2657      2660      2663      2658      2657      2659
      2658      2657      2660      2659      2657      2660      2660      2663      2664
      2660      2663      2665      2661      2660      2662      2661      2660      2663
      2662      2660      2663      2663      2665      2666      2663      2665      2667
      2664      2663      2665      2665      2667      2668      2665      2667      2669
      2665      2667      2670      2666      2665      2667      2667      2670      2671
      2667      2670      2672      2668      2667      2669      2668      2667      2670
      2669      2667      2670      2670      2672      2673      2670      2672      2674
      2671      2670      2672      2672      2674      2675      2672      2674      2676
      2672      2674      2677      2673      2672      2674      2674      2677      2678
      2674      2677      2679      2675      2674      2676      2675      2674      2677
      2676      2674      2677      2677      2679      2680      2677      2679      2681
      2678      2677      2679      2679      2681      2682      2679      2681      2683
      2679      2681      2684      2680      2679      2681      2681      2684      2685
      2681      2684      2686      2682      2681      2683      2682      2681      2684
      2683      2681      2684      2684      2686      2687      2684      2686      2688
      2685      2684      2686      2686      2688      2689      2686      2688      2690
      2686      2688      2691      2687      2686      2688      2688      2691      2692
      2688      2691      2693      2688      2691      2694      2689      2688      2690
      2689      2688      2691      2690      2688      2691      2691      2694      2695
      2691      2694      2696      2691      2694      2697      2692      2691      2693
      2692      2691      2694      2693      2691      2694      2694      2697      2698
      2694      2697      2699      2694      2697      2700      2695      2694      2696
      2695      2694      2697      2696      2694      2697      2697      2700      2701
      2697      2700      2702      2697      2700      2703      2698      2697      2699
      2698      2697      2700      2699      2697      2700      2701      2700      2702
      2701      2700      2703      2702      2700      2703      2704      2707      2708
      2704      2707      2709      2704      2707      2710      2705      2704      2706
      2705      2704      2707      2706      2704      2707      2707      2710      2711
      2707      2710      2712      2707      2710      2713      2708      2707      2709
      2708      2707      2710      2709      2707      2710      2710      2713      2714
      2710      2713      2715      2710      2713      2716      2711      2710      2712
      2711      2710      2713      2712      2710      2713      2713      2716      2717
      2713      2716      2718      2713      2716      2719      2714      2713      2715
      2714      2713      2716      2715      2713      2716      2716      2719      2720
      2716      2719      2721      2716      2719      2722      2717      2716      2718
      2717      2716      2719      2718      2716      2719      2719      2722      2723
      2719      2722      2724      2719      2722      2725      2720      2719      2721
      2720      2719      2722      2721      2719      2722      2722      2725      2726
      2722      2725      2727      2722      2725      2728      2723      2722      2724
      2723      2722      2725      2724      2722      2725      2725      2728      2729
      2725      2728      2730      2725      2728      2731      2726      2725      2727
      2726      2725      2728      2727      2725      2728      2728      2731      2732
      2728      2731      2733      2728      2731      2734      2729      2728      2730
      2729      2728      2731      2730      2728      2731      2731      2734      2735
      2731      2734      2736      2731      2734      2737      2732      2731      2733
      2732      2731      2734      2733      2731      2734      2734      2737      2738
      2734      2737      2739      2734      2737      2740      2735      2734      2736
      2735      2734      2737      2736      2734      2737      2737      2740      2741
      2737      2740      2742      2737      2740      2743      2738      2737      2739
      2738      2737      2740      2739      2737      2740      2740      2743      2744
      2740      2743      2745      2740      2743      2746      2741      2740      2742
      2741      2740      2743      2742      2740      2743      2743      2746      2747
      2743      2746      2748      2743      2746      2749      2744      2743      2745
      2744      2743      2746      2745      2743      2746      2746      2749      2750
      2746      2749      2751      2746      2749      2752      2747      2746      2748
      2747      2746      2749      2748      2746      2749      2750      2749      2751
      2750      2749      2752      2751      2749      2752      2753      2755      2756
      2753      2757      2758      2753      2757      2759      2753      2757      2760
      2753      2799      2796      2753      2799      2800      2753      2799      2801
      2754      2753      2755      2754      2753      2757      2754      2753      2799
      2755      2753      2757      2755      2753      2799      2757      2753      2799
      2757      2760      2761      2757      2760      2791      2758      2757      2759
      2758      2757      2760      2759      2757      2760      2760      2761      2762
      2760      2761      2763      2760      2791      2789      2760      2791      2792
      2760      2791      2796      2761      2760      2791      2761      2763      2764
      2761      2763      2765      2761      2763      2766      2762      2761      2763
      2763      2766      2767      2763      2766      2768      2763      2766      2789
      2764      2763      2765      2764      2763      2766      2765      2763      2766
      2766      2768      2769      2766      2768      2770      2766      2768      2778
      2766      2789      2786      2766      2789      2790      2766      2789      2791
      2767      2766      2768      2767      2766      2789      2768      2766      2789
      2768      2770      2771      2768      2770      2772      2768      2770      2773
      2768      2778      2776      2768      2778      2779      2768      2778      2783
      2769      2768      2770      2769      2768      2778      2770      2768      2778
      2770      2773      2774      2770      2773      2775      2770      2773      2776
      2771      2770      2772      2771      2770      2773      2772      2770      2773
      2773      2776      2777      2773      2776      2778      2773      2776      2802
      2774      2773      2775      2774      2773      2776      2775      2773      2776
      2776      2778      2779      2776      2778      2783      2776      2802      2803
      2776      2802      2804      2776      2802      2808      2777      2776      2778
      2777      2776      2802      2778      2776      2802      2778      2779      2780
      2778      2779      2781      2778      2779      2782      2778      2783      2784
      2778      2783      2785      2778      2783      2786      2779      2778      2783
      2780      2779      2781      2780      2779      2782      2781      2779      2782
      2783      2786      2787      2783      2786      2788      2783      2786      2789
      2784      2783      2785      2784      2783      2786      2785      2783      2786
      2786      2789      2790      2786      2789      2791      2787      2786      2788
      2787      2786      2789      2788      2786      2789      2789      2791      2792
      2789      2791      2796      2790      2789      2791      2791      2792      2793
      2791      2792      2794      2791      2792      2795      2791      2796      2797
      2791      2796      2798      2791      2796      2799      2792      2791      2796
      2793      2792      2794      2793      2792      2795      2794      2792      2795
      2796      2799      2800      2796      2799      2801      2797      2796      2798
      2797      2796      2799      2798      2796      2799      2800      2799      2801
      2802      2804      2805      2802      2804      2806      2802      2804      2807
      2802      2808      2809      2802      2808      2810      2802      2808      2811
      2803      2802      2804      2803      2802      2808      2804      2802      2808
      2805      2804      2806      2805      2804      2807      2806      2804      2807
      2808      2811      2812      2808      2811      2813      2808      2811      2814
      2809      2808      2810      2809      2808      2811      2810      2808      2811
      2811      2814      2815      2811      2814      2816      2811      2814      2817
      2812      2811      2813      2812      2811      2814      2813      2811      2814
      2814      2817      2818      2814      2817      2819      2814      2817      2823
      2815      2814      2816      2815      2814      2817      2816      2814      2817
      2817      2819      2820      2817      2819      2821      2817      2819      2822
      2817      2823      2824      2817      2823      2825      2817      2823      2826
      2818      2817      2819      2818      2817      2823      2819      2817      2823
      2820      2819      2821      2820      2819      2822      2821      2819      2822
      2824      2823      2825      2824      2823      2826      2825      2823      2826
      2827      2829      2830      2827      2831      2832      2827      2831      2833
      2827      2831      2835      2827      2847      2843      2827      2847      2848
      2827      2847      2852      2828      2827      2829      2828      2827      2831
      2828      2827      2847      2829      2827      2831      2829      2827      2847
      2831      2827      2847      2831      2833      2834      2831      2835      2836
      2831      2835      2837      2831      2835      2839      2832      2831      2833
      2832      2831      2835      2833      2831      2835      2835      2837      2838
      2835      2839      2840      2835      2839      2841      2835      2839      2843
      2836      2835      2837      2836      2835      2839      2837      2835      2839
      2839      2841      2842      2839      2843      2844      2839      2843      2845
      2839      2843      2847      2840      2839      2841      2840      2839      2843
      2841      2839      2843      2843      2845      2846      2843      2847      2848
      2843      2847      2852      2844      2843      2845      2844      2843      2847
      2845      2843      2847      2847      2852      2849      2848      2847      2852
      2849      2853      2854      2850      2849      2851      2850      2849      2852
      2850      2849      2853      2851      2849      2852      2851      2849      2853
      2852      2849      2853      2853      2854      2855      2853      2854      2856
      2853      2854      2857      2854      2857      2858      2854      2857      2859
      2854      2857      2865      2855      2854      2856      2855      2854      2857
      2856      2854      2857      2857      2859      2860      2857      2865      2866
      2857      2865      2867      2857      2865      2868      2858      2857      2859
      2858      2857      2865      2859      2857      2865      2859      2860      2861
      2859      2860      2862      2860      2862      2863      2860      2862      2864
      2860      2862      2874      2861      2860      2862      2862      2874      2875
      2862      2874      2876      2862      2874      2877      2863      2862      2864
      2863      2862      2874      2864      2862      2874      2865      2868      2869
      2866      2865      2867      2866      2865      2868      2867      2865      2868
      2868      2869      2870      2868      2869      2871      2869      2871      2872
      2869      2871      2873      2869      2871      2921      2870      2869      2871
      2871      2921      2922      2871      2921      2923      2871      2921      2924
      2872      2871      2873      2872      2871      2921      2873      2871      2921
      2874      2877      2878      2874      2877      2879      2874      2877      2880
      2875      2874      2876      2875      2874      2877      2876      2874      2877
      2877      2880      2881      2877      2880      2882      2878      2877      2879
      2878      2877      2880      2879      2877      2880      2880      2882      2883
      2880      2882      2884      2881      2880      2882      2882      2884      2885
      2882      2884      2886      2882      2884      2887      2883      2882      2884
      2884      2887      2888      2884      2887      2889      2885      2884      2886
      2885      2884      2887      2886      2884      2887      2887      2889      2890
      2887      2889      2891      2888      2887      2889      2889      2891      2892
      2889      2891      2893      2889      2891      2894      2890      2889      2891
      2891      2894      2895      2891      2894      2896      2892      2891      2893
      2892      2891      2894      2893      2891      2894      2894      2896      2897
      2894      2896      2898      2895      2894      2896      2896      2898      2899
      2896      2898      2900      2896      2898      2901      2897      2896      2898
      2898      2901      2902      2898      2901      2903      2899      2898      2900
      2899      2898      2901      2900      2898      2901      2901      2903      2904
      2901      2903      2905      2902      2901      2903      2903      2905      2906
      2903      2905      2907      2903      2905      2908      2904      2903      2905
      2905      2908      2909      2905      2908      2910      2905      2908      2911
      2906      2905      2907      2906      2905      2908      2907      2905      2908
      2908      2911      2912      2908      2911      2913      2908      2911      2914
      2909      2908      2910      2909      2908      2911      2910      2908      2911
      2911      2914      2915      2911      2914      2916      2911      2914      2917
      2912      2911      2913      2912      2911      2914      2913      2911      2914
      2914      2917      2918      2914      2917      2919      2914      2917      2920
      2915      2914      2916      2915      2914      2917      2916      2914      2917
      2918      2917      2919      2918      2917      2920      2919      2917      2920
      2921      2924      2925      2921      2924      2926      2921      2924      2927
      2922      2921      2923      2922      2921      2924      2923      2921      2924
      2924      2927      2928      2924      2927      2929      2924      2927      2930
      2925      2924      2926      2925      2924      2927      2926      2924      2927
      2927      2930      2931      2927      2930      2932      2927      2930      2933
      2928      2927      2929      2928      2927      2930      2929      2927      2930
      2930      2933      2934      2930      2933      2935      2930      2933      2936
      2931      2930      2932      2931      2930      2933      2932      2930      2933
      2933      2936      2937      2933      2936      2938      2933      2936      2939
      2934      2933      2935      2934      2933      2936      2935      2933      2936
      2936      2939      2940      2936      2939      2941      2936      2939      2942
      2937      2936      2938      2937      2936      2939      2938      2936      2939
      2939      2942      2943      2939      2942      2944      2939      2942      2945
      2940      2939      2941      2940      2939      2942      2941      2939      2942
      2942      2945      2946      2942      2945      2947      2942      2945      2948
      2943      2942      2944      2943      2942      2945      2944      2942      2945
      2945      2948      2949      2945      2948      2950      2945      2948      2951
      2946      2945      2947      2946      2945      2948      2947      2945      2948
      2948      2951      2952      2948      2951      2953      2948      2951      2954
      2949      2948      2950      2949      2948      2951      2950      2948      2951
      2951      2954      2955      2951      2954      2956      2951      2954      2957
      2952      2951      2953      2952      2951      2954      2953      2951      2954
      2954      2957      2958      2954      2957      2959      2954      2957      2960
      2955      2954      2956      2955      2954      2957      2956      2954      2957
      2957      2960      2961      2957      2960      2962      2957      2960      2963
      2958      2957      2959      2958      2957      2960      2959      2957      2960
      2960      2963      2964      2960      2963      2965      2960      2963      2966
      2961      2960      2962      2961      2960      2963      2962      2960      2963
      2963      2966      2967      2963      2966      2968      2963      2966      2969
      2964      2963      2965      2964      2963      2966      2965      2963      2966
      2967      2966      2968      2967      2966      2969      2968      2966      2969
      2970      2972      2973      2970      2974      2975      2970      2974      2976
      2970      2974      2977      2970      3016      3013      2970      3016      3017
      2970      3016      3018      2971      2970      2972      2971      2970      2974
      2971      2970      3016      2972      2970      2974      2972      2970      3016
      2974      2970      3016      2974      2977      2978      2974      2977      3008
      2975      2974      2976      2975      2974      2977      2976      2974      2977
      2977      2978      2979      2977      2978      2980      2977      3008      3006
      2977      3008      3009      2977      3008      3013      2978      2977      3008
      2978      2980      2981      2978      2980      2982      2978      2980      2983
      2979      2978      2980      2980      2983      2984      2980      2983      2985
      2980      2983      3006      2981      2980      2982      2981      2980      2983
      2982      2980      2983      2983      2985      2986      2983      2985      2987
      2983      2985      2995      2983      3006      3003      2983      3006      3007
      2983      3006      3008      2984      2983      2985      2984      2983      3006
      2985      2983      3006      2985      2987      2988      2985      2987      2989
      2985      2987      2990      2985      2995      2993      2985      2995      2996
      2985      2995      3000      2986      2985      2987      2986      2985      2995
      2987      2985      2995      2987      2990      2991      2987      2990      2992
      2987      2990      2993      2988      2987      2989      2988      2987      2990
      2989      2987      2990      2990      2993      2994      2990      2993      2995
      2990      2993      3019      2991      2990      2992      2991      2990      2993
      2992      2990      2993      2993      2995      2996      2993      2995      3000
      2993      3019      3020      2993      3019      3021      2993      3019      3025
      2994      2993      2995      2994      2993      3019      2995      2993      3019
      2995      2996      2997      2995      2996      2998      2995      2996      2999
      2995      3000      3001      2995      3000      3002      2995      3000      3003
      2996      2995      3000      2997      2996      2998      2997      2996      2999
      2998      2996      2999      3000      3003      3004      3000      3003      3005
      3000      3003      3006      3001      3000      3002      3001      3000      3003
      3002      3000      3003      3003      3006      3007      3003      3006      3008
      3004      3003      3005      3004      3003      3006      3005      3003      3006
      3006      3008      3009      3006      3008      3013      3007      3006      3008
      3008      3009      3010      3008      3009      3011      3008      3009      3012
      3008      3013      3014      3008      3013      3015      3008      3013      3016
      3009      3008      3013      3010      3009      3011      3010      3009      3012
      3011      3009      3012      3013      3016      3017      3013      3016      3018
      3014      3013      3015      3014      3013      3016      3015      3013      3016
      3017      3016      3018      3019      3021      3022      3019      3021      3023
      3019      3021      3024      3019      3025      3026      3019      3025      3027
      3019      3025      3028      3020      3019      3021      3020      3019      3025
      3021      3019      3025      3022      3021      3023      3022      3021      3024
      3023      3021      3024      3025      3028      3029      3025      3028      3030
      3025      3028      3031      3026      3025      3027      3026      3025      3028
      3027      3025      3028      3028      3031      3032      3028      3031      3033
      3028      3031      3034      3029      3028      3030      3029      3028      3031
      3030      3028      3031      3031      3034      3035      3031      3034      3036
      3031      3034      3040      3032      3031      3033      3032      3031      3034
      3033      3031      3034      3034      3036      3037      3034      3036      3038
      3034      3036      3039      3034      3040      3041      3034      3040      3042
      3034      3040      3043      3035      3034      3036      3035      3034      3040
      3036      3034      3040      3037      3036      3038      3037      3036      3039
      3038      3036      3039      3041      3040      3042      3041      3040      3043
      3042      3040      3043      3044      3048      3049      3044      3048      3050
      3044      3048      3051      3045      3044      3046      3045      3044      3047
      3045      3044      3048      3046      3044      3047      3046      3044      3048
      3047      3044      3048      3048      3051      3052      3048      3051      3053
      3048      3051      3057      3049      3048      3050      3049      3048      3051
      3050      3048      3051      3051      3057      3054      3052      3051      3053
      3052      3051      3057      3053      3051      3057      3054      3058      3059
      3055      3054      3056      3055      3054      3057      3055      3054      3058
      3056      3054      3057      3056      3054      3058      3057      3054      3058
      3058      3059      3060      3058      3059      3061      3058      3059      3062
      3059      3062      3063      3059      3062      3064      3059      3062      3070
      3060      3059      3061      3060      3059      3062      3061      3059      3062
      3062      3064      3065      3062      3070      3071      3062      3070      3072
      3062      3070      3073      3063      3062      3064      3063      3062      3070
      3064      3062      3070      3064      3065      3066      3064      3065      3067
      3065      3067      3068      3065      3067      3069      3065      3067      3079
      3066      3065      3067      3067      3079      3080      3067      3079      3081
      3067      3079      3082      3068      3067      3069      3068      3067      3079
      3069      3067      3079      3070      3073      3074      3071      3070      3072
      3071      3070      3073      3072      3070      3073      3073      3074      3075
      3073      3074      3076      3074      3076      3077      3074      3076      3078
      3074      3076      3126      3075      3074      3076      3076      3126      3127
      3076      3126      3128      3076      3126      3129      3077      3076      3078
      3077      3076      3126      3078      3076      3126      3079      3082      3083
      3079      3082      3084      3079      3082      3085      3080      3079      3081
      3080      3079      3082      3081      3079      3082      3082      3085      3086
      3082      3085      3087      3083      3082      3084      3083      3082      3085
      3084      3082      3085      3085      3087      3088      3085      3087      3089
      3086      3085      3087      3087      3089      3090      3087      3089      3091
      3087      3089      3092      3088      3087      3089      3089      3092      3093
      3089      3092      3094      3090      3089      3091      3090      3089      3092
      3091      3089      3092      3092      3094      3095      3092      3094      3096
      3093      3092      3094      3094      3096      3097      3094      3096      3098
      3094      3096      3099      3095      3094      3096      3096      3099      3100
      3096      3099      3101      3097      3096      3098      3097      3096      3099
      3098      3096      3099      3099      3101      3102      3099      3101      3103
      3100      3099      3101      3101      3103      3104      3101      3103      3105
      3101      3103      3106      3102      3101      3103      3103      3106      3107
      3103      3106      3108      3104      3103      3105      3104      3103      3106
      3105      3103      3106      3106      3108      3109      3106      3108      3110
      3107      3106      3108      3108      3110      3111      3108      3110      3112
      3108      3110      3113      3109      3108      3110      3110      3113      3114
      3110      3113      3115      3110      3113      3116      3111      3110      3112
      3111      3110      3113      3112      3110      3113      3113      3116      3117
      3113      3116      3118      3113      3116      3119      3114      3113      3115
      3114      3113      3116      3115      3113      3116      3116      3119      3120
      3116      3119      3121      3116      3119      3122      3117      3116      3118
      3117      3116      3119      3118      3116      3119      3119      3122      3123
      3119      3122      3124      3119      3122      3125      3120      3119      3121
      3120      3119      3122      3121      3119      3122      3123      3122      3124
      3123      3122      3125      3124      3122      3125      3126      3129      3130
      3126      3129      3131      3126      3129      3132      3127      3126      3128
      3127      3126      3129      3128      3126      3129      3129      3132      3133
      3129      3132      3134      3129      3132      3135      3130      3129      3131
      3130      3129      3132      3131      3129      3132      3132      3135      3136
      3132      3135      3137      3132      3135      3138      3133      3132      3134
      3133      3132      3135      3134      3132      3135      3135      3138      3139
      3135      3138      3140      3135      3138      3141      3136      3135      3137
      3136      3135      3138      3137      3135      3138      3138      3141      3142
      3138      3141      3143      3138      3141      3144      3139      3138      3140
      3139      3138      3141      3140      3138      3141      3141      3144      3145
      3141      3144      3146      3141      3144      3147      3142      3141      3143
      3142      3141      3144      3143      3141      3144      3144      3147      3148
      3144      3147      3149      3144      3147      3150      3145      3144      3146
      3145      3144      3147      3146      3144      3147      3147      3150      3151
      3147      3150      3152      3147      3150      3153      3148      3147      3149
      3148      3147      3150      3149      3147      3150      3150      3153      3154
      3150      3153      3155      3150      3153      3156      3151      3150      3152
      3151      3150      3153      3152      3150      3153      3153      3156      3157
      3153      3156      3158      3153      3156      3159      3154      3153      3155
      3154      3153      3156      3155      3153      3156      3156      3159      3160
      3156      3159      3161      3156      3159      3162      3157      3156      3158
      3157      3156      3159      3158      3156      3159      3159      3162      3163
      3159      3162      3164      3159      3162      3165      3160      3159      3161
      3160      3159      3162      3161      3159      3162      3162      3165      3166
      3162      3165      3167      3162      3165      3168      3163      3162      3164
      3163      3162      3165      3164      3162      3165      3165      3168      3169
      3165      3168      3170      3165      3168      3171      3166      3165      3167
      3166      3165      3168      3167      3165      3168      3168      3171      3172
      3168      3171      3173      3168      3171      3174      3169      3168      3170
      3169      3168      3171      3170      3168      3171      3172      3171      3173
      3172      3171      3174      3173      3171      3174      3175      3176      3177
      3175      3176      3178      3175      3176      3179      3175      3180      3181
      3175      3180      3182      3175      3180      3183      3175      3184      3185
      3175      3184      3186      3175      3184      3187      3175      3188      3189
      3175      3188      3190      3175      3188      3191      3176      3175      3180
      3176      3175      3184      3176      3175      3188      3177      3176      3178
      3177      3176      3179      3178      3176      3179      3180      3175      3184
      3180      3175      3188      3181      3180      3182      3181      3180      3183
      3182      3180      3183      3184      3175      3188      3185      3184      3186
      3185      3184      3187      3186      3184      3187      3188      3191      3192
      3188      3191      3193      3188      3191      3198      3189      3188      3190
      3189      3188      3191      3190      3188      3191      3191      3198      3194
      3192      3191      3193      3192      3191      3198      3193      3191      3198
      3194      3197      3199      3195      3194      3196      3195      3194      3197
      3195      3194      3198      3196      3194      3197      3196      3194      3198
      3197      3194      3198      3197      3199      3200      3197      3199      3201
      3197      3199      3204      3199      3204      3202      3199      3204      3205
      3199      3204      3206      3200      3199      3201      3200      3199      3204
      3201      3199      3204      3202      3204      3205      3202      3204      3206
      3202      3254      3255      3202      3254      3256      3203      3202      3204
      3203      3202      3254      3204      3202      3254      3204      3206      3207
      3204      3206      3208      3204      3206      3210      3205      3204      3206
      3206      3208      3209      3206      3210      3211      3206      3210      3212
      3207      3206      3208      3207      3206      3210      3208      3206      3210
      3210      3212      3213      3210      3212      3214      3211      3210      3212
      3212      3214      3215      3212      3214      3216      3212      3214      3217
      3213      3212      3214      3214      3217      3218      3214      3217      3219
      3214      3217      3220      3215      3214      3216      3215      3214      3217
      3216      3214      3217      3217      3220      3221      3217      3220      3222
      3217      3220      3223      3218      3217      3219      3218      3217      3220
      3219      3217      3220      3220      3223      3224      3220      3223      3225
      3220      3223      3226      3221      3220      3222      3221      3220      3223
      3222      3220      3223      3223      3226      3227      3223      3226      3228
      3223      3226      3229      3224      3223      3225      3224      3223      3226
      3225      3223      3226      3226      3229      3230      3226      3229      3231
      3226      3229      3232      3227      3226      3228      3227      3226      3229
      3228      3226      3229      3229      3232      3233      3229      3232      3234
      3229      3232      3235      3230      3229      3231      3230      3229      3232
      3231      3229      3232      3232      3235      3236      3232      3235      3237
      3232      3235      3238      3233      3232      3234      3233      3232      3235
      3234      3232      3235      3235      3238      3239      3235      3238      3240
      3235      3238      3241      3236      3235      3237      3236      3235      3238
      3237      3235      3238      3238      3241      3242      3238      3241      3243
      3238      3241      3244      3239      3238      3240      3239      3238      3241
      3240      3238      3241      3241      3244      3245      3241      3244      3246
      3241      3244      3247      3242      3241      3243      3242      3241      3244
      3243      3241      3244      3244      3247      3248      3244      3247      3249
      3244      3247      3250      3245      3244      3246      3245      3244      3247
      3246      3244      3247      3247      3250      3251      3247      3250      3252
      3247      3250      3253      3248      3247      3249      3248      3247      3250
      3249      3247      3250      3251      3250      3252      3251      3250      3253
      3252      3250      3253      3254      3256      3257      3254      3256      3258
      3254      3256      3259      3255      3254      3256      3256      3259      3260
      3256      3259      3261      3256      3259      3262      3257      3256      3258
      3257      3256      3259      3258      3256      3259      3259      3262      3263
      3259      3262      3264      3259      3262      3265      3260      3259      3261
      3260      3259      3262      3261      3259      3262      3262      3265      3266
      3262      3265      3267      3262      3265      3268      3263      3262      3264
      3263      3262      3265      3264      3262      3265      3265      3268      3269
      3265      3268      3270      3265      3268      3271      3266      3265      3267
      3266      3265      3268      3267      3265      3268      3268      3271      3272
      3268      3271      3273      3268      3271      3274      3269      3268      3270
      3269      3268      3271      3270      3268      3271      3271      3274      3275
      3271      3274      3276      3271      3274      3277      3272      3271      3273
      3272      3271      3274      3273      3271      3274      3274      3277      3278
      3274      3277      3279      3275      3274      3276      3275      3274      3277
      3276      3274      3277      3277      3279      3280      3277      3279      3281
      3278      3277      3279      3279      3281      3282      3279      3281      3283
      3279      3281      3284      3280      3279      3281      3281      3284      3285
      3281      3284      3286      3281      3284      3287      3282      3281      3283
      3282      3281      3284      3283      3281      3284      3284      3287      3288
      3284      3287      3289      3284      3287      3290      3285      3284      3286
      3285      3284      3287      3286      3284      3287      3287      3290      3291
      3287      3290      3292      3287      3290      3293      3288      3287      3289
      3288      3287      3290      3289      3287      3290      3290      3293      3294
      3290      3293      3295      3290      3293      3296      3291      3290      3292
      3291      3290      3293      3292      3290      3293      3293      3296      3297
      3293      3296      3298      3293      3296      3299      3294      3293      3295
      3294      3293      3296      3295      3293      3296      3296      3299      3300
      3296      3299      3301      3296      3299      3302      3297      3296      3298
      3297      3296      3299      3298      3296      3299      3299      3302      3303
      3299      3302      3304      3299      3302      3305      3300      3299      3301
      3300      3299      3302      3301      3299      3302      3303      3302      3304
      3303      3302      3305      3304      3302      3305      3306      3308      3309
      3306      3310      3311      3306      3310      3312      3306      3310      3313
      3306      3352      3349      3306      3352      3353      3306      3352      3354
      3307      3306      3308      3307      3306      3310      3307      3306      3352
      3308      3306      3310      3308      3306      3352      3310      3306      3352
      3310      3313      3314      3310      3313      3344      3311      3310      3312
      3311      3310      3313      3312      3310      3313      3313      3314      3315
      3313      3314      3316      3313      3344      3342      3313      3344      3345
      3313      3344      3349      3314      3313      3344      3314      3316      3317
      3314      3316      3318      3314      3316      3319      3315      3314      3316
      3316      3319      3320      3316      3319      3321      3316      3319      3342
      3317      3316      3318      3317      3316      3319      3318      3316      3319
      3319      3321      3322      3319      3321      3323      3319      3321      3331
      3319      3342      3339      3319      3342      3343      3319      3342      3344
      3320      3319      3321      3320      3319      3342      3321      3319      3342
      3321      3323      3324      3321      3323      3325      3321      3323      3326
      3321      3331      3329      3321      3331      3332      3321      3331      3336
      3322      3321      3323      3322      3321      3331      3323      3321      3331
      3323      3326      3327      3323      3326      3328      3323      3326      3329
      3324      3323      3325      3324      3323      3326      3325      3323      3326
      3326      3329      3330      3326      3329      3331      3326      3329      3355
      3327      3326      3328      3327      3326      3329      3328      3326      3329
      3329      3331      3332      3329      3331      3336      3329      3355      3356
      3329      3355      3357      3329      3355      3361      3330      3329      3331
      3330      3329      3355      3331      3329      3355      3331      3332      3333
      3331      3332      3334      3331      3332      3335      3331      3336      3337
      3331      3336      3338      3331      3336      3339      3332      3331      3336
      3333      3332      3334      3333      3332      3335      3334      3332      3335
      3336      3339      3340      3336      3339      3341      3336      3339      3342
      3337      3336      3338      3337      3336      3339      3338      3336      3339
      3339      3342      3343      3339      3342      3344      3340      3339      3341
      3340      3339      3342      3341      3339      3342      3342      3344      3345
      3342      3344      3349      3343      3342      3344      3344      3345      3346
      3344      3345      3347      3344      3345      3348      3344      3349      3350
      3344      3349      3351      3344      3349      3352      3345      3344      3349
      3346      3345      3347      3346      3345      3348      3347      3345      3348
      3349      3352      3353      3349      3352      3354      3350      3349      3351
      3350      3349      3352      3351      3349      3352      3353      3352      3354
      3355      3357      3358      3355      3357      3359      3355      3357      3360
      3355      3361      3362      3355      3361      3363      3355      3361      3364
      3356      3355      3357      3356      3355      3361      3357      3355      3361
      3358      3357      3359      3358      3357      3360      3359      3357      3360
      3361      3364      3365      3361      3364      3366      3361      3364      3367
      3362      3361      3363      3362      3361      3364      3363      3361      3364
      3364      3367      3368      3364      3367      3369      3364      3367      3370
      3365      3364      3366      3365      3364      3367      3366      3364      3367
      3367      3370      3371      3367      3370      3372      3367      3370      3376
      3368      3367      3369      3368      3367      3370      3369      3367      3370
      3370      3372      3373      3370      3372      3374      3370      3372      3375
      3370      3376      3377      3370      3376      3378      3370      3376      3379
      3371      3370      3372      3371      3370      3376      3372      3370      3376
      3373      3372      3374      3373      3372      3375      3374      3372      3375
      3377      3376      3378      3377      3376      3379      3378      3376      3379
      3380      3381      3382      3380      3381      3383      3380      3381      3384
      3380      3385      3386      3380      3385      3387      3380      3385      3388
      3380      3389      3390      3380      3389      3391      3380      3389      3392
      3380      3393      3394      3380      3393      3395      3380      3393      3396
      3381      3380      3385      3381      3380      3389      3381      3380      3393
      3382      3381      3383      3382      3381      3384      3383      3381      3384
      3385      3380      3389      3385      3380      3393      3386      3385      3387
      3386      3385      3388      3387      3385      3388      3389      3380      3393
      3390      3389      3391      3390      3389      3392      3391      3389      3392
      3393      3396      3397      3393      3396      3398      3393      3396      3403
      3394      3393      3395      3394      3393      3396      3395      3393      3396
      3396      3403      3399      3397      3396      3398      3397      3396      3403
      3398      3396      3403      3399      3402      3404      3400      3399      3401
      3400      3399      3402      3400      3399      3403      3401      3399      3402
      3401      3399      3403      3402      3399      3403      3402      3404      3405
      3402      3404      3406      3402      3404      3409      3404      3409      3407
      3404      3409      3410      3404      3409      3411      3405      3404      3406
      3405      3404      3409      3406      3404      3409      3407      3409      3410
      3407      3409      3411      3407      3459      3460      3407      3459      3461
      3408      3407      3409      3408      3407      3459      3409      3407      3459
      3409      3411      3412      3409      3411      3413      3409      3411      3415
      3410      3409      3411      3411      3413      3414      3411      3415      3416
      3411      3415      3417      3412      3411      3413      3412      3411      3415
      3413      3411      3415      3415      3417      3418      3415      3417      3419
      3416      3415      3417      3417      3419      3420      3417      3419      3421
      3417      3419      3422      3418      3417      3419      3419      3422      3423
      3419      3422      3424      3419      3422      3425      3420      3419      3421
      3420      3419      3422      3421      3419      3422      3422      3425      3426
      3422      3425      3427      3422      3425      3428      3423      3422      3424
      3423      3422      3425      3424      3422      3425      3425      3428      3429
      3425      3428      3430      3425      3428      3431      3426      3425      3427
      3426      3425      3428      3427      3425      3428      3428      3431      3432
      3428      3431      3433      3428      3431      3434      3429      3428      3430
      3429      3428      3431      3430      3428      3431      3431      3434      3435
      3431      3434      3436      3431      3434      3437      3432      3431      3433
      3432      3431      3434      3433      3431      3434      3434      3437      3438
      3434      3437      3439      3434      3437      3440      3435      3434      3436
      3435      3434      3437      3436      3434      3437      3437      3440      3441
      3437      3440      3442      3437      3440      3443      3438      3437      3439
      3438      3437      3440      3439      3437      3440      3440      3443      3444
      3440      3443      3445      3440      3443      3446      3441      3440      3442
      3441      3440      3443      3442      3440      3443      3443      3446      3447
      3443      3446      3448      3443      3446      3449      3444      3443      3445
      3444      3443      3446      3445      3443      3446      3446      3449      3450
      3446      3449      3451      3446      3449      3452      3447      3446      3448
      3447      3446      3449      3448      3446      3449      3449      3452      3453
      3449      3452      3454      3449      3452      3455      3450      3449      3451
      3450      3449      3452      3451      3449      3452      3452      3455      3456
      3452      3455      3457      3452      3455      3458      3453      3452      3454
      3453      3452      3455      3454      3452      3455      3456      3455      3457
      3456      3455      3458      3457      3455      3458      3459      3461      3462
      3459      3461      3463      3459      3461      3464      3460      3459      3461
      3461      3464      3465      3461      3464      3466      3461      3464      3467
      3462      3461      3463      3462      3461      3464      3463      3461      3464
      3464      3467      3468      3464      3467      3469      3464      3467      3470
      3465      3464      3466      3465      3464      3467      3466      3464      3467
      3467      3470      3471      3467      3470      3472      3467      3470      3473
      3468      3467      3469      3468      3467      3470      3469      3467      3470
      3470      3473      3474      3470      3473      3475      3470      3473      3476
      3471      3470      3472      3471      3470      3473      3472      3470      3473
      3473      3476      3477      3473      3476      3478      3473      3476      3479
      3474      3473      3475      3474      3473      3476      3475      3473      3476
      3476      3479      3480      3476      3479      3481      3476      3479      3482
      3477      3476      3478      3477      3476      3479      3478      3476      3479
      3479      3482      3483      3479      3482      3484      3480      3479      3481
      3480      3479      3482      3481      3479      3482      3482      3484      3485
      3482      3484      3486      3483      3482      3484      3484      3486      3487
      3484      3486      3488      3484      3486      3489      3485      3484      3486
      3486      3489      3490      3486      3489      3491      3486      3489      3492
      3487      3486      3488      3487      3486      3489      3488      3486      3489
      3489      3492      3493      3489      3492      3494      3489      3492      3495
      3490      3489      3491      3490      3489      3492      3491      3489      3492
      3492      3495      3496      3492      3495      3497      3492      3495      3498
      3493      3492      3494      3493      3492      3495      3494      3492      3495
      3495      3498      3499      3495      3498      3500      3495      3498      3501
      3496      3495      3497      3496      3495      3498      3497      3495      3498
      3498      3501      3502      3498      3501      3503      3498      3501      3504
      3499      3498      3500      3499      3498      3501      3500      3498      3501
      3501      3504      3505      3501      3504      3506      3501      3504      3507
      3502      3501      3503      3502      3501      3504      3503      3501      3504
      3504      3507      3508      3504      3507      3509      3504      3507      3510
      3505      3504      3506      3505      3504      3507      3506      3504      3507
      3508      3507      3509      3508      3507      3510      3509      3507      3510
      3511      3512      3513      3511      3512      3514      3511      3512      3515
      3511      3516      3517      3511      3516      3518      3511      3516      3519
      3511      3520      3521      3511      3520      3522      3511      3520      3523
      3511      3524      3525      3511      3524      3526      3511      3524      3527
      3512      3511      3516      3512      3511      3520      3512      3511      3524
      3513      3512      3514      3513      3512      3515      3514      3512      3515
      3516      3511      3520      3516      3511      3524      3517      3516      3518
      3517      3516      3519      3518      3516      3519      3520      3511      3524
      3521      3520      3522      3521      3520      3523      3522      3520      3523
      3524      3527      3528      3524      3527      3529      3524      3527      3533
      3525      3524      3526      3525      3524      3527      3526      3524      3527
      3527      3533      3530      3528      3527      3529      3528      3527      3533
      3529      3527      3533      3530      3534      3535      3531      3530      3532
      3531      3530      3533      3531      3530      3534      3532      3530      3533
      3532      3530      3534      3533      3530      3534      3534      3535      3536
      3534      3535      3537      3534      3535      3538      3535      3538      3539
      3535      3538      3540      3535      3538      3546      3536      3535      3537
      3536      3535      3538      3537      3535      3538      3538      3540      3541
      3538      3546      3547      3538      3546      3548      3538      3546      3549
      3539      3538      3540      3539      3538      3546      3540      3538      3546
      3540      3541      3542      3540      3541      3543      3541      3543      3544
      3541      3543      3545      3541      3543      3555      3542      3541      3543
      3543      3555      3556      3543      3555      3557      3543      3555      3558
      3544      3543      3545      3544      3543      3555      3545      3543      3555
      3546      3549      3550      3547      3546      3548      3547      3546      3549
      3548      3546      3549      3549      3550      3551      3549      3550      3552
      3550      3552      3553      3550      3552      3554      3550      3552      3600
      3551      3550      3552      3552      3600      3601      3552      3600      3602
      3552      3600      3603      3553      3552      3554      3553      3552      3600
      3554      3552      3600      3555      3558      3559      3555      3558      3560
      3555      3558      3561      3556      3555      3557      3556      3555      3558
      3557      3555      3558      3558      3561      3562      3558      3561      3563
      3558      3561      3564      3559      3558      3560      3559      3558      3561
      3560      3558      3561      3561      3564      3565      3561      3564      3566
      3561      3564      3567      3562      3561      3563      3562      3561      3564
      3563      3561      3564      3564      3567      3568      3564      3567      3569
      3564      3567      3570      3565      3564      3566      3565      3564      3567
      3566      3564      3567      3567      3570      3571      3567      3570      3572
      3567      3570      3573      3568      3567      3569      3568      3567      3570
      3569      3567      3570      3570      3573      3574      3570      3573      3575
      3571      3570      3572      3571      3570      3573      3572      3570      3573
      3573      3575      3576      3573      3575      3577      3574      3573      3575
      3575      3577      3578      3575      3577      3579      3575      3577      3580
      3576      3575      3577      3577      3580      3581      3577      3580      3582
      3578      3577      3579      3578      3577      3580      3579      3577      3580
      3580      3582      3583      3580      3582      3584      3581      3580      3582
      3582      3584      3585      3582      3584      3586      3582      3584      3587
      3583      3582      3584      3584      3587      3588      3584      3587      3589
      3584      3587      3590      3585      3584      3586      3585      3584      3587
      3586      3584      3587      3587      3590      3591      3587      3590      3592
      3587      3590      3593      3588      3587      3589      3588      3587      3590
      3589      3587      3590      3590      3593      3594      3590      3593      3595
      3590      3593      3596      3591      3590      3592      3591      3590      3593
      3592      3590      3593      3593      3596      3597      3593      3596      3598
      3593      3596      3599      3594      3593      3595      3594      3593      3596
      3595      3593      3596      3597      3596      3598      3597      3596      3599
      3598      3596      3599      3600      3603      3604      3600      3603      3605
      3600      3603      3606      3601      3600      3602      3601      3600      3603
      3602      3600      3603      3603      3606      3607      3603      3606      3608
      3603      3606      3609      3604      3603      3605      3604      3603      3606
      3605      3603      3606      3606      3609      3610      3606      3609      3611
      3606      3609      3612      3607      3606      3608      3607      3606      3609
      3608      3606      3609      3609      3612      3613      3609      3612      3614
      3609      3612      3615      3610      3609      3611      3610      3609      3612
      3611      3609      3612      3612      3615      3616      3612      3615      3617
      3612      3615      3618      3613      3612      3614      3613      3612      3615
      3614      3612      3615      3615      3618      3619      3615      3618      3620
      3615      3618      3621      3616      3615      3617      3616      3615      3618
      3617      3615      3618      3618      3621      3622      3618      3621      3623
      3618      3621      3624      3619      3618      3620      3619      3618      3621
      3620      3618      3621      3621      3624      3625      3621      3624      3626
      3621      3624      3627      3622      3621      3623      3622      3621      3624
      3623      3621      3624      3624      3627      3628      3624      3627      3629
      3624      3627      3630      3625      3624      3626      3625      3624      3627
      3626      3624      3627      3627      3630      3631      3627      3630      3632
      3627      3630      3633      3628      3627      3629      3628      3627      3630
      3629      3627      3630      3630      3633      3634      3630      3633      3635
      3630      3633      3636      3631      3630      3632      3631      3630      3633
      3632      3630      3633      3633      3636      3637      3633      3636      3638
      3633      3636      3639      3634      3633      3635      3634      3633      3636
      3635      3633      3636      3636      3639      3640      3636      3639      3641
      3636      3639      3642      3637      3636      3638      3637      3636      3639
      3638      3636      3639      3639      3642      3643      3639      3642      3644
      3639      3642      3645      3640      3639      3641      3640      3639      3642
      3641      3639      3642      3642      3645      3646      3642      3645      3647
      3642      3645      3648      3643      3642      3644      3643      3642      3645
      3644      3642      3645      3646      3645      3647      3646      3645      3648
      3647      3645      3648      3649      3651      3652      3649      3653      3654
      3649      3653      3655      3649      3653      3656      3649      3695      3692
      3649      3695      3696      3649      3695      3697      3650      3649      3651
      3650      3649      3653      3650      3649      3695      3651      3649      3653
      3651      3649      3695      3653      3649      3695      3653      3656      3657
      3653      3656      3687      3654      3653      3655      3654      3653      3656
      3655      3653      3656      3656      3657      3658      3656      3657      3659
      3656      3687      3685      3656      3687      3688      3656      3687      3692
      3657      3656      3687      3657      3659      3660      3657      3659      3661
      3657      3659      3662      3658      3657      3659      3659      3662      3663
      3659      3662      3664      3659      3662      3685      3660      3659      3661
      3660      3659      3662      3661      3659      3662      3662      3664      3665
      3662      3664      3666      3662      3664      3674      3662      3685      3682
      3662      3685      3686      3662      3685      3687      3663      3662      3664
      3663      3662      3685      3664      3662      3685      3664      3666      3667
      3664      3666      3668      3664      3666      3669      3664      3674      3672
      3664      3674      3675      3664      3674      3679      3665      3664      3666
      3665      3664      3674      3666      3664      3674      3666      3669      3670
      3666      3669      3671      3666      3669      3672      3667      3666      3668
      3667      3666      3669      3668      3666      3669      3669      3672      3673
      3669      3672      3674      3669      3672      3698      3670      3669      3671
      3670      3669      3672      3671      3669      3672      3672      3674      3675
      3672      3674      3679      3672      3698      3699      3672      3698      3700
      3672      3698      3704      3673      3672      3674      3673      3672      3698
      3674      3672      3698      3674      3675      3676      3674      3675      3677
      3674      3675      3678      3674      3679      3680      3674      3679      3681
      3674      3679      3682      3675      3674      3679      3676      3675      3677
      3676      3675      3678      3677      3675      3678      3679      3682      3683
      3679      3682      3684      3679      3682      3685      3680      3679      3681
      3680      3679      3682      3681      3679      3682      3682      3685      3686
      3682      3685      3687      3683      3682      3684      3683      3682      3685
      3684      3682      3685      3685      3687      3688      3685      3687      3692
      3686      3685      3687      3687      3688      3689      3687      3688      3690
      3687      3688      3691      3687      3692      3693      3687      3692      3694
      3687      3692      3695      3688      3687      3692      3689      3688      3690
      3689      3688      3691      3690      3688      3691      3692      3695      3696
      3692      3695      3697      3693      3692      3694      3693      3692      3695
      3694      3692      3695      3696      3695      3697      3698      3700      3701
      3698      3700      3702      3698      3700      3703      3698      3704      3705
      3698      3704      3706      3698      3704      3707      3699      3698      3700
      3699      3698      3704      3700      3698      3704      3701      3700      3702
      3701      3700      3703      3702      3700      3703      3704      3707      3708
      3704      3707      3709      3704      3707      3710      3705      3704      3706
      3705      3704      3707      3706      3704      3707      3707      3710      3711
      3707      3710      3712      3707      3710      3713      3708      3707      3709
      3708      3707      3710      3709      3707      3710      3710      3713      3714
      3710      3713      3715      3710      3713      3719      3711      3710      3712
      3711      3710      3713      3712      3710      3713      3713      3715      3716
      3713      3715      3717      3713      3715      3718      3713      3719      3720
      3713      3719      3721      3713      3719      3722      3714      3713      3715
      3714      3713      3719      3715      3713      3719      3716      3715      3717
      3716      3715      3718      3717      3715      3718      3720      3719      3721
      3720      3719      3722      3721      3719      3722      3723      3725      3726
      3723      3727      3728      3723      3727      3729      3723      3727      3730
      3723      3769      3766      3723      3769      3770      3723      3769      3771
      3724      3723      3725      3724      3723      3727      3724      3723      3769
      3725      3723      3727      3725      3723      3769      3727      3723      3769
      3727      3730      3731      3727      3730      3761      3728      3727      3729
      3728      3727      3730      3729      3727      3730      3730      3731      3732
      3730      3731      3733      3730      3761      3759      3730      3761      3762
      3730      3761      3766      3731      3730      3761      3731      3733      3734
      3731      3733      3735      3731      3733      3736      3732      3731      3733
      3733      3736      3737      3733      3736      3738      3733      3736      3759
      3734      3733      3735      3734      3733      3736      3735      3733      3736
      3736      3738      3739      3736      3738      3740      3736      3738      3748
      3736      3759      3756      3736      3759      3760      3736      3759      3761
      3737      3736      3738      3737      3736      3759      3738      3736      3759
      3738      3740      3741      3738      3740      3742      3738      3740      3743
      3738      3748      3746      3738      3748      3749      3738      3748      3753
      3739      3738      3740      3739      3738      3748      3740      3738      3748
      3740      3743      3744      3740      3743      3745      3740      3743      3746
      3741      3740      3742      3741      3740      3743      3742      3740      3743
      3743      3746      3747      3743      3746      3748      3743      3746      3772
      3744      3743      3745      3744      3743      3746      3745      3743      3746
      3746      3748      3749      3746      3748      3753      3746      3772      3773
      3746      3772      3774      3746      3772      3778      3747      3746      3748
      3747      3746      3772      3748      3746      3772      3748      3749      3750
      3748      3749      3751      3748      3749      3752      3748      3753      3754
      3748      3753      3755      3748      3753      3756      3749      3748      3753
      3750      3749      3751      3750      3749      3752      3751      3749      3752
      3753      3756      3757      3753      3756      3758      3753      3756      3759
      3754      3753      3755      3754      3753      3756      3755      3753      3756
      3756      3759      3760      3756      3759      3761      3757      3756      3758
      3757      3756      3759      3758      3756      3759      3759      3761      3762
      3759      3761      3766      3760      3759      3761      3761      3762      3763
      3761      3762      3764      3761      3762      3765      3761      3766      3767
      3761      3766      3768      3761      3766      3769      3762      3761      3766
      3763      3762      3764      3763      3762      3765      3764      3762      3765
      3766      3769      3770      3766      3769      3771      3767      3766      3768
      3767      3766      3769      3768      3766      3769      3770      3769      3771
      3772      3774      3775      3772      3774      3776      3772      3774      3777
      3772      3778      3779      3772      3778      3780      3772      3778      3781
      3773      3772      3774      3773      3772      3778      3774      3772      3778
      3775      3774      3776      3775      3774      3777      3776      3774      3777
      3778      3781      3782      3778      3781      3783      3778      3781      3784
      3779      3778      3780      3779      3778      3781      3780      3778      3781
      3781      3784      3785      3781      3784      3786      3781      3784      3787
      3782      3781      3783      3782      3781      3784      3783      3781      3784
      3784      3787      3788      3784      3787      3789      3784      3787      3793
      3785      3784      3786      3785      3784      3787      3786      3784      3787
      3787      3789      3790      3787      3789      3791      3787      3789      3792
      3787      3793      3794      3787      3793      3795      3787      3793      3796
      3788      3787      3789      3788      3787      3793      3789      3787      3793
      3790      3789      3791      3790      3789      3792      3791      3789      3792
      3794      3793      3795      3794      3793      3796      3795      3793      3796
      3797      3801      3802      3797      3801      3803      3797      3801      3806
      3798      3797      3799      3798      3797      3800      3798      3797      3801
      3799      3797      3800      3799      3797      3801      3800      3797      3801
      3801      3803      3804      3801      3803      3805      3801      3806      3807
      3801      3806      3808      3801      3806      3812      3802      3801      3803
      3802      3801      3806      3803      3801      3806      3804      3803      3805
      3806      3812      3809      3807      3806      3808      3807      3806      3812
      3808      3806      3812      3809      3813      3814      3810      3809      3811
      3810      3809      3812      3810      3809      3813      3811      3809      3812
      3811      3809      3813      3812      3809      3813      3813      3814      3815
      3813      3814      3816      3813      3814      3817      3814      3817      3818
      3814      3817      3819      3814      3817      3825      3815      3814      3816
      3815      3814      3817      3816      3814      3817      3817      3819      3820
      3817      3825      3826      3817      3825      3827      3817      3825      3828
      3818      3817      3819      3818      3817      3825      3819      3817      3825
      3819      3820      3821      3819      3820      3822      3820      3822      3823
      3820      3822      3824      3820      3822      3834      3821      3820      3822
      3822      3834      3835      3822      3834      3836      3822      3834      3837
      3823      3822      3824      3823      3822      3834      3824      3822      3834
      3825      3828      3829      3826      3825      3827      3826      3825      3828
      3827      3825      3828      3828      3829      3830      3828      3829      3831
      3829      3831      3832      3829      3831      3833      3829      3831      3881
      3830      3829      3831      3831      3881      3882      3831      3881      3883
      3831      3881      3884      3832      3831      3833      3832      3831      3881
      3833      3831      3881      3834      3837      3838      3834      3837      3839
      3834      3837      3840      3835      3834      3836      3835      3834      3837
      3836      3834      3837      3837      3840      3841      3837      3840      3842
      3838      3837      3839      3838      3837      3840      3839      3837      3840
      3840      3842      3843      3840      3842      3844      3841      3840      3842
      3842      3844      3845      3842      3844      3846      3842      3844      3847
      3843      3842      3844      3844      3847      3848      3844      3847      3849
      3845      3844      3846      3845      3844      3847      3846      3844      3847
      3847      3849      3850      3847      3849      3851      3848      3847      3849
      3849      3851      3852      3849      3851      3853      3849      3851      3854
      3850      3849      3851      3851      3854      3855      3851      3854      3856
      3852      3851      3853      3852      3851      3854      3853      3851      3854
      3854      3856      3857      3854      3856      3858      3855      3854      3856
      3856      3858      3859      3856      3858      3860      3856      3858      3861
      3857      3856      3858      3858      3861      3862      3858      3861      3863
      3859      3858      3860      3859      3858      3861      3860      3858      3861
      3861      3863      3864      3861      3863      3865      3862      3861      3863
      3863      3865      3866      3863      3865      3867      3863      3865      3868
      3864      3863      3865      3865      3868      3869      3865      3868      3870
      3865      3868      3871      3866      3865      3867      3866      3865      3868
      3867      3865      3868      3868      3871      3872      3868      3871      3873
      3868      3871      3874      3869      3868      3870      3869      3868      3871
      3870      3868      3871      3871      3874      3875      3871      3874      3876
      3871      3874      3877      3872      3871      3873      3872      3871      3874
      3873      3871      3874      3874      3877      3878      3874      3877      3879
      3874      3877      3880      3875      3874      3876      3875      3874      3877
      3876      3874      3877      3878      3877      3879      3878      3877      3880
      3879      3877      3880      3881      3884      3885      3881      3884      3886
      3881      3884      3887      3882      3881      3883      3882      3881      3884
      3883      3881      3884      3884      3887      3888      3884      3887      3889
      3884      3887      3890      3885      3884      3886      3885      3884      3887
      3886      3884      3887      3887      3890      3891      3887      3890      3892
      3887      3890      3893      3888      3887      3889      3888      3887      3890
      3889      3887      3890      3890      3893      3894      3890      3893      3895
      3890      3893      3896      3891      3890      3892      3891      3890      3893
      3892      3890      3893      3893      3896      3897      3893      3896      3898
      3893      3896      3899      3894      3893      3895      3894      3893      3896
      3895      3893      3896      3896      3899      3900      3896      3899      3901
      3896      3899      3902      3897      3896      3898      3897      3896      3899
      3898      3896      3899      3899      3902      3903      3899      3902      3904
      3899      3902      3905      3900      3899      3901      3900      3899      3902
      3901      3899      3902      3902      3905      3906      3902      3905      3907
      3902      3905      3908      3903      3902      3904      3903      3902      3905
      3904      3902      3905      3905      3908      3909      3905      3908      3910
      3905      3908      3911      3906      3905      3907      3906      3905      3908
      3907      3905      3908      3908      3911      3912      3908      3911      3913
      3908      3911      3914      3909      3908      3910      3909      3908      3911
      3910      3908      3911      3911      3914      3915      3911      3914      3916
      3911      3914      3917      3912      3911      3913      3912      3911      3914
      3913      3911      3914      3914      3917      3918      3914      3917      3919
      3914      3917      3920      3915      3914      3916      3915      3914      3917
      3916      3914      3917      3917      3920      3921      3917      3920      3922
      3917      3920      3923      3918      3917      3919      3918      3917      3920
      3919      3917      3920      3920      3923      3924      3920      3923      3925
      3920      3923      3926      3921      3920      3922      3921      3920      3923
      3922      3920      3923      3923      3926      3927      3923      3926      3928
      3923      3926      3929      3924      3923      3925      3924      3923      3926
      3925      3923      3926      3927      3926      3928      3927      3926      3929
      3928      3926      3929      3930      3934      3935      3930      3934      3936
      3930      3934      3937      3931      3930      3932      3931      3930      3933
      3931      3930      3934      3932      3930      3933      3932      3930      3934
      3933      3930      3934      3934      3937      3938      3934      3937      3939
      3934      3937      3943      3935      3934      3936      3935      3934      3937
      3936      3934      3937      3937      3943      3940      3938      3937      3939
      3938      3937      3943      3939      3937      3943      3940      3944      3945
      3941      3940      3942      3941      3940      3943      3941      3940      3944
      3942      3940      3943      3942      3940      3944      3943      3940      3944
      3944      3945      3946      3944      3945      3947      3944      3945      3948
      3945      3948      3949      3945      3948      3950      3945      3948      3956
      3946      3945      3947      3946      3945      3948      3947      3945      3948
      3948      3950      3951      3948      3956      3957      3948      3956      3958
      3948      3956      3959      3949      3948      3950      3949      3948      3956
      3950      3948      3956      3950      3951      3952      3950      3951      3953
      3951      3953      3954      3951      3953      3955      3951      3953      3965
      3952      3951      3953      3953      3965      3966      3953      3965      3967
      3953      3965      3968      3954      3953      3955      3954      3953      3965
      3955      3953      3965      3956      3959      3960      3957      3956      3958
      3957      3956      3959      3958      3956      3959      3959      3960      3961
      3959      3960      3962      3960      3962      3963      3960      3962      3964
      3960      3962      4012      3961      3960      3962      3962      4012      4013
      3962      4012      4014      3962      4012      4015      3963      3962      3964
      3963      3962      4012      3964      3962      4012      3965      3968      3969
      3965      3968      3970      3965      3968      3971      3966      3965      3967
      3966      3965      3968      3967      3965      3968      3968      3971      3972
      3968      3971      3973      3969      3968      3970      3969      3968      3971
      3970      3968      3971      3971      3973      3974      3971      3973      3975
      3972      3971      3973      3973      3975      3976      3973      3975      3977
      3973      3975      3978      3974      3973      3975      3975      3978      3979
      3975      3978      3980      3976      3975      3977      3976      3975      3978
      3977      3975      3978      3978      3980      3981      3978      3980      3982
      3979      3978      3980      3980      3982      3983      3980      3982      3984
      3980      3982      3985      3981      3980      3982      3982      3985      3986
      3982      3985      3987      3983      3982      3984      3983      3982      3985
      3984      3982      3985      3985      3987      3988      3985      3987      3989
      3986      3985      3987      3987      3989      3990      3987      3989      3991
      3987      3989      3992      3988      3987      3989      3989      3992      3993
      3989      3992      3994      3990      3989      3991      3990      3989      3992
      3991      3989      3992      3992      3994      3995      3992      3994      3996
      3993      3992      3994      3994      3996      3997      3994      3996      3998
      3994      3996      3999      3995      3994      3996      3996      3999      4000
      3996      3999      4001      3996      3999      4002      3997      3996      3998
      3997      3996      3999      3998      3996      3999      3999      4002      4003
      3999      4002      4004      3999      4002      4005      4000      3999      4001
      4000      3999      4002      4001      3999      4002      4002      4005      4006
      4002      4005      4007      4002      4005      4008      4003      4002      4004
      4003      4002      4005      4004      4002      4005      4005      4008      4009
      4005      4008      4010      4005      4008      4011      4006      4005      4007
      4006      4005      4008      4007      4005      4008      4009      4008      4010
      4009      4008      4011      4010      4008      4011      4012      4015      4016
      4012      4015      4017      4012      4015      4018      4013      4012      4014
      4013      4012      4015      4014      4012      4015      4015      4018      4019
      4015      4018      4020      4015      4018      4021      4016      4015      4017
      4016      4015      4018      4017      4015      4018      4018      4021      4022
      4018      4021      4023      4018      4021      4024      4019      4018      4020
      4019      4018      4021      4020      4018      4021      4021      4024      4025
      4021      4024      4026      4021      4024      4027      4022      4021      4023
      4022      4021      4024      4023      4021      4024      4024      4027      4028
      4024      4027      4029      4024      4027      4030      4025      4024      4026
      4025      4024      4027      4026      4024      4027      4027      4030      4031
      4027      4030      4032      4027      4030      4033      4028      4027      4029
      4028      4027      4030      4029      4027      4030      4030      4033      4034
      4030      4033      4035      4030      4033      4036      4031      4030      4032
      4031      4030      4033      4032      4030      4033      4033      4036      4037
      4033      4036      4038      4033      4036      4039      4034      4033      4035
      4034      4033      4036      4035      4033      4036      4036      4039      4040
      4036      4039      4041      4036      4039      4042      4037      4036      4038
      4037      4036      4039      4038      4036      4039      4039      4042      4043
      4039      4042      4044      4039      4042      4045      4040      4039      4041
      4040      4039      4042      4041      4039      4042      4042      4045      4046
      4042      4045      4047      4042      4045      4048      4043      4042      4044
      4043      4042      4045      4044      4042      4045      4045      4048      4049
      4045      4048      4050      4045      4048      4051      4046      4045      4047
      4046      4045      4048      4047      4045      4048      4048      4051      4052
      4048      4051      4053      4048      4051      4054      4049      4048      4050
      4049      4048      4051      4050      4048      4051      4051      4054      4055
      4051      4054      4056      4051      4054      4057      4052      4051      4053
      4052      4051      4054      4053      4051      4054      4054      4057      4058
      4054      4057      4059      4054      4057      4060      4055      4054      4056
      4055      4054      4057      4056      4054      4057      4058      4057      4059
      4058      4057      4060      4059      4057      4060      4061      4063      4064
      4061      4065      4066      4061      4065      4067      4061      4065      4068
      4061      4107      4104      4061      4107      4108      4061      4107      4109
      4062      4061      4063      4062      4061      4065      4062      4061      4107
      4063      4061      4065      4063      4061      4107      4065      4061      4107
      4065      4068      4069      4065      4068      4099      4066      4065      4067
      4066      4065      4068      4067      4065      4068      4068      4069      4070
      4068      4069      4071      4068      4099      4097      4068      4099      4100
      4068      4099      4104      4069      4068      4099      4069      4071      4072
      4069      4071      4073      4069      4071      4074      4070      4069      4071
      4071      4074      4075      4071      4074      4076      4071      4074      4097
      4072      4071      4073      4072      4071      4074      4073      4071      4074
      4074      4076      4077      4074      4076      4078      4074      4076      4086
      4074      4097      4094      4074      4097      4098      4074      4097      4099
      4075      4074      4076      4075      4074      4097      4076      4074      4097
      4076      4078      4079      4076      4078      4080      4076      4078      4081
      4076      4086      4084      4076      4086      4087      4076      4086      4091
      4077      4076      4078      4077      4076      4086      4078      4076      4086
      4078      4081      4082      4078      4081      4083      4078      4081      4084
      4079      4078      4080      4079      4078      4081      4080      4078      4081
      4081      4084      4085      4081      4084      4086      4081      4084      4110
      4082      4081      4083      4082      4081      4084      4083      4081      4084
      4084      4086      4087      4084      4086      4091      4084      4110      4111
      4084      4110      4112      4084      4110      4116      4085      4084      4086
      4085      4084      4110      4086      4084      4110      4086      4087      4088
      4086      4087      4089      4086      4087      4090      4086      4091      4092
      4086      4091      4093      4086      4091      4094      4087      4086      4091
      4088      4087      4089      4088      4087      4090      4089      4087      4090
      4091      4094      4095      4091      4094      4096      4091      4094      4097
      4092      4091      4093      4092      4091      4094      4093      4091      4094
      4094      4097      4098      4094      4097      4099      4095      4094      4096
      4095      4094      4097      4096      4094      4097      4097      4099      4100
      4097      4099      4104      4098      4097      4099      4099      4100      4101
      4099      4100      4102      4099      4100      4103      4099      4104      4105
      4099      4104      4106      4099      4104      4107      4100      4099      4104
      4101      4100      4102      4101      4100      4103      4102      4100      4103
      4104      4107      4108      4104      4107      4109      4105      4104      4106
      4105      4104      4107      4106      4104      4107      4108      4107      4109
      4110      4112      4113      4110      4112      4114      4110      4112      4115
      4110      4116      4117      4110      4116      4118      4110      4116      4119
      4111      4110      4112      4111      4110      4116      4112      4110      4116
      4113      4112      4114      4113      4112      4115      4114      4112      4115
      4116      4119      4120      4116      4119      4121      4116      4119      4122
      4117      4116      4118      4117      4116      4119      4118      4116      4119
      4119      4122      4123      4119      4122      4124      4119      4122      4125
      4120      4119      4121      4120      4119      4122      4121      4119      4122
      4122      4125      4126      4122      4125      4127      4122      4125      4131
      4123      4122      4124      4123      4122      4125      4124      4122      4125
      4125      4127      4128      4125      4127      4129      4125      4127      4130
      4125      4131      4132      4125      4131      4133      4125      4131      4134
      4126      4125      4127      4126      4125      4131      4127      4125      4131
      4128      4127      4129      4128      4127      4130      4129      4127      4130
      4132      4131      4133      4132      4131      4134      4133      4131      4134
      4135      4139      4140      4135      4139      4141      4135      4139      4144
      4136      4135      4137      4136      4135      4138      4136      4135      4139
      4137      4135      4138      4137      4135      4139      4138      4135      4139
      4139      4141      4142      4139      4141      4143      4139      4144      4145
      4139      4144      4146      4139      4144      4150      4140      4139      4141
      4140      4139      4144      4141      4139      4144      4142      4141      4143
      4144      4150      4147      4145      4144      4146      4145      4144      4150
      4146      4144      4150      4147      4151      4152      4148      4147      4149
      4148      4147      4150      4148      4147      4151      4149      4147      4150
      4149      4147      4151      4150      4147      4151      4151      4152      4153
      4151      4152      4154      4151      4152      4155      4152      4155      4156
      4152      4155      4157      4152      4155      4163      4153      4152      4154
      4153      4152      4155      4154      4152      4155      4155      4157      4158
      4155      4163      4164      4155      4163      4165      4155      4163      4166
      4156      4155      4157      4156      4155      4163      4157      4155      4163
      4157      4158      4159      4157      4158      4160      4158      4160      4161
      4158      4160      4162      4158      4160      4172      4159      4158      4160
      4160      4172      4173      4160      4172      4174      4160      4172      4175
      4161      4160      4162      4161      4160      4172      4162      4160      4172
      4163      4166      4167      4164      4163      4165      4164      4163      4166
      4165      4163      4166      4166      4167      4168      4166      4167      4169
      4167      4169      4170      4167      4169      4171      4167      4169      4219
      4168      4167      4169      4169      4219      4220      4169      4219      4221
      4169      4219      4222      4170      4169      4171      4170      4169      4219
      4171      4169      4219      4172      4175      4176      4172      4175      4177
      4172      4175      4178      4173      4172      4174      4173      4172      4175
      4174      4172      4175      4175      4178      4179      4175      4178      4180
      4176      4175      4177      4176      4175      4178      4177      4175      4178
      4178      4180      4181      4178      4180      4182      4179      4178      4180
      4180      4182      4183      4180      4182      4184      4180      4182      4185
      4181      4180      4182      4182      4185      4186      4182      4185      4187
      4183      4182      4184      4183      4182      4185      4184      4182      4185
      4185      4187      4188      4185      4187      4189      4186      4185      4187
      4187      4189      4190      4187      4189      4191      4187      4189      4192
      4188      4187      4189      4189      4192      4193      4189      4192      4194
      4190      4189      4191      4190      4189      4192      4191      4189      4192
      4192      4194      4195      4192      4194      4196      4193      4192      4194
      4194      4196      4197      4194      4196      4198      4194      4196      4199
      4195      4194      4196      4196      4199      4200      4196      4199      4201
      4197      4196      4198      4197      4196      4199      4198      4196      4199
      4199      4201      4202      4199      4201      4203      4200      4199      4201
      4201      4203      4204      4201      4203      4205      4201      4203      4206
      4202      4201      4203      4203      4206      4207      4203      4206      4208
      4203      4206      4209      4204      4203      4205      4204      4203      4206
      4205      4203      4206      4206      4209      4210      4206      4209      4211
      4206      4209      4212      4207      4206      4208      4207      4206      4209
      4208      4206      4209      4209      4212      4213      4209      4212      4214
      4209      4212      4215      4210      4209      4211      4210      4209      4212
      4211      4209      4212      4212      4215      4216      4212      4215      4217
      4212      4215      4218      4213      4212      4214      4213      4212      4215
      4214      4212      4215      4216      4215      4217      4216      4215      4218
      4217      4215      4218      4219      4222      4223      4219      4222      4224
      4219      4222      4225      4220      4219      4221      4220      4219      4222
      4221      4219      4222      4222      4225      4226      4222      4225      4227
      4222      4225      4228      4223      4222      4224      4223      4222      4225
      4224      4222      4225      4225      4228      4229      4225      4228      4230
      4225      4228      4231      4226      4225      4227      4226      4225      4228
      4227      4225      4228      4228      4231      4232      4228      4231      4233
      4228      4231      4234      4229      4228      4230      4229      4228      4231
      4230      4228      4231      4231      4234      4235      4231      4234      4236
      4231      4234      4237      4232      4231      4233      4232      4231      4234
      4233      4231      4234      4234      4237      4238      4234      4237      4239
      4234      4237      4240      4235      4234      4236      4235      4234      4237
      4236      4234      4237      4237      4240      4241      4237      4240      4242
      4237      4240      4243      4238      4237      4239      4238      4237      4240
      4239      4237      4240      4240      4243      4244      4240      4243      4245
      4240      4243      4246      4241      4240      4242      4241      4240      4243
      4242      4240      4243      4243      4246      4247      4243      4246      4248
      4243      4246      4249      4244      4243      4245      4244      4243      4246
      4245      4243      4246      4246      4249      4250      4246      4249      4251
      4246      4249      4252      4247      4246      4248      4247      4246      4249
      4248      4246      4249      4249      4252      4253      4249      4252      4254
      4249      4252      4255      4250      4249      4251      4250      4249      4252
      4251      4249      4252      4252      4255      4256      4252      4255      4257
      4252      4255      4258      4253      4252      4254      4253      4252      4255
      4254      4252      4255      4255      4258      4259      4255      4258      4260
      4255      4258      4261      4256      4255      4257      4256      4255      4258
      4257      4255      4258      4258      4261      4262      4258      4261      4263
      4258      4261      4264      4259      4258      4260      4259      4258      4261
      4260      4258      4261      4261      4264      4265      4261      4264      4266
      4261      4264      4267      4262      4261      4263      4262      4261      4264
      4263      4261      4264      4265      4264      4266      4265      4264      4267
      4266      4264      4267      4268      4269      4270      4268      4269      4271
      4268      4269      4272      4268      4273      4274      4268      4273      4275
      4268      4273      4276      4268      4277      4278      4268      4277      4279
      4268      4277      4280      4268      4281      4282      4268      4281      4283
      4268      4281      4284      4269      4268      4273      4269      4268      4277
      4269      4268      4281      4270      4269      4271      4270      4269      4272
      4271      4269      4272      4273      4268      4277      4273      4268      4281
      4274      4273      4275      4274      4273      4276      4275      4273      4276
      4277      4268      4281      4278      4277      4279      4278      4277      4280
      4279      4277      4280      4281      4284      4285      4281      4284      4286
      4281      4284      4290      4282      4281      4283      4282      4281      4284
      4283      4281      4284      4284      4290      4287      4285      4284      4286
      4285      4284      4290      4286      4284      4290      4287      4291      4292
      4288      4287      4289      4288      4287      4290      4288      4287      4291
      4289      4287      4290      4289      4287      4291      4290      4287      4291
      4291      4292      4293      4291      4292      4294      4291      4292      4295
      4292      4295      4296      4292      4295      4297      4292      4295      4303
      4293      4292      4294      4293      4292      4295      4294      4292      4295
      4295      4297      4298      4295      4303      4304      4295      4303      4305
      4295      4303      4306      4296      4295      4297      4296      4295      4303
      4297      4295      4303      4297      4298      4299      4297      4298      4300
      4298      4300      4301      4298      4300      4302      4298      4300      4312
      4299      4298      4300      4300      4312      4313      4300      4312      4314
      4300      4312      4315      4301      4300      4302      4301      4300      4312
      4302      4300      4312      4303      4306      4307      4304      4303      4305
      4304      4303      4306      4305      4303      4306      4306      4307      4308
      4306      4307      4309      4307      4309      4310      4307      4309      4311
      4307      4309      4357      4308      4307      4309      4309      4357      4358
      4309      4357      4359      4309      4357      4360      4310      4309      4311
      4310      4309      4357      4311      4309      4357      4312      4315      4316
      4312      4315      4317      4312      4315      4318      4313      4312      4314
      4313      4312      4315      4314      4312      4315      4315      4318      4319
      4315      4318      4320      4315      4318      4321      4316      4315      4317
      4316      4315      4318      4317      4315      4318      4318      4321      4322
      4318      4321      4323      4318      4321      4324      4319      4318      4320
      4319      4318      4321      4320      4318      4321      4321      4324      4325
      4321      4324      4326      4321      4324      4327      4322      4321      4323
      4322      4321      4324      4323      4321      4324      4324      4327      4328
      4324      4327      4329      4324      4327      4330      4325      4324      4326
      4325      4324      4327      4326      4324      4327      4327      4330      4331
      4327      4330      4332      4328      4327      4329      4328      4327      4330
      4329      4327      4330      4330      4332      4333      4330      4332      4334
      4331      4330      4332      4332      4334      4335      4332      4334      4336
      4332      4334      4337      4333      4332      4334      4334      4337      4338
      4334      4337      4339      4335      4334      4336      4335      4334      4337
      4336      4334      4337      4337      4339      4340      4337      4339      4341
      4338      4337      4339      4339      4341      4342      4339      4341      4343
      4339      4341      4344      4340      4339      4341      4341      4344      4345
      4341      4344      4346      4341      4344      4347      4342      4341      4343
      4342      4341      4344      4343      4341      4344      4344      4347      4348
      4344      4347      4349      4344      4347      4350      4345      4344      4346
      4345      4344      4347      4346      4344      4347      4347      4350      4351
      4347      4350      4352      4347      4350      4353      4348      4347      4349
      4348      4347      4350      4349      4347      4350      4350      4353      4354
      4350      4353      4355      4350      4353      4356      4351      4350      4352
      4351      4350      4353      4352      4350      4353      4354      4353      4355
      4354      4353      4356      4355      4353      4356      4357      4360      4361
      4357      4360      4362      4357      4360      4363      4358      4357      4359
      4358      4357      4360      4359      4357      4360      4360      4363      4364
      4360      4363      4365      4360      4363      4366      4361      4360      4362
      4361      4360      4363      4362      4360      4363      4363      4366      4367
      4363      4366      4368      4363      4366      4369      4364      4363      4365
      4364      4363      4366      4365      4363      4366      4366      4369      4370
      4366      4369      4371      4366      4369      4372      4367      4366      4368
      4367      4366      4369      4368      4366      4369      4369      4372      4373
      4369      4372      4374      4369      4372      4375      4370      4369      4371
      4370      4369      4372      4371      4369      4372      4372      4375      4376
      4372      4375      4377      4372      4375      4378      4373      4372      4374
      4373      4372      4375      4374      4372      4375      4375      4378      4379
      4375      4378      4380      4375      4378      4381      4376      4375      4377
      4376      4375      4378      4377      4375      4378      4378      4381      4382
      4378      4381      4383      4378      4381      4384      4379      4378      4380
      4379      4378      4381      4380      4378      4381      4381      4384      4385
      4381      4384      4386      4381      4384      4387      4382      4381      4383
      4382      4381      4384      4383      4381      4384      4384      4387      4388
      4384      4387      4389      4384      4387      4390      4385      4384      4386
      4385      4384      4387      4386      4384      4387      4387      4390      4391
      4387      4390      4392      4387      4390      4393      4388      4387      4389
      4388      4387      4390      4389      4387      4390      4390      4393      4394
      4390      4393      4395      4390      4393      4396      4391      4390      4392
      4391      4390      4393      4392      4390      4393      4393      4396      4397
      4393      4396      4398      4393      4396      4399      4394      4393      4395
      4394      4393      4396      4395      4393      4396      4396      4399      4400
      4396      4399      4401      4396      4399      4402      4397      4396      4398
      4397      4396      4399      4398      4396      4399      4399      4402      4403
      4399      4402      4404      4399      4402      4405      4400      4399      4401
      4400      4399      4402      4401      4399      4402      4403      4402      4404
      4403      4402      4405      4404      4402      4405      4406      4407      4408
      4406      4407      4409      4406      4407      4422      4406      4410      4411
      4406      4410      4412      4406      4410      4413      4406      4414      4415
      4406      4414      4416      4406      4414      4417      4406      4418      4419
      4406      4418      4420      4406      4418      4421      4407      4406      4410
      4407      4406      4414      4407      4406      4418      4407      4422      4423
      4407      4422      4424      4407      4422      4428      4408      4407      4409
      4408      4407      4422      4409      4407      4422      4410      4406      4414
      4410      4406      4418      4411      4410      4412      4411      4410      4413
      4412      4410      4413      4414      4406      4418      4415      4414      4416
      4415      4414      4417      4416      4414      4417      4419      4418      4420
      4419      4418      4421      4420      4418      4421      4422      4428      4425
      4423      4422      4424      4423      4422      4428      4424      4422      4428
      4425      4429      4430      4426      4425      4427      4426      4425      4428
      4426      4425      4429      4427      4425      4428      4427      4425      4429
      4428      4425      4429      4429      4430      4431      4429      4430      4432
      4429      4430      4433      4430      4433      4434      4430      4433      4435
      4430      4433      4441      4431      4430      4432      4431      4430      4433
      4432      4430      4433      4433      4435      4436      4433      4441      4442
      4433      4441      4443      4433      4441      4444      4434      4433      4435
      4434      4433      4441      4435      4433      4441      4435      4436      4437
      4435      4436      4438      4436      4438      4439      4436      4438      4440
      4436      4438      4450      4437      4436      4438      4438      4450      4451
      4438      4450      4452      4438      4450      4453      4439      4438      4440
      4439      4438      4450      4440      4438      4450      4441      4444      4445
      4442      4441      4443      4442      4441      4444      4443      4441      4444
      4444      4445      4446      4444      4445      4447      4445      4447      4448
      4445      4447      4449      4445      4447      4497      4446      4445      4447
      4447      4497      4498      4447      4497      4499      4447      4497      4500
      4448      4447      4449      4448      4447      4497      4449      4447      4497
      4450      4453      4454      4450      4453      4455      4450      4453      4456
      4451      4450      4452      4451      4450      4453      4452      4450      4453
      4453      4456      4457      4453      4456      4458      4454      4453      4455
      4454      4453      4456      4455      4453      4456      4456      4458      4459
      4456      4458      4460      4457      4456      4458      4458      4460      4461
      4458      4460      4462      4458      4460      4463      4459      4458      4460
      4460      4463      4464      4460      4463      4465      4461      4460      4462
      4461      4460      4463      4462      4460      4463      4463      4465      4466
      4463      4465      4467      4464      4463      4465      4465      4467      4468
      4465      4467      4469      4465      4467      4470      4466      4465      4467
      4467      4470      4471      4467      4470      4472      4468      4467      4469
      4468      4467      4470      4469      4467      4470      4470      4472      4473
      4470      4472      4474      4471      4470      4472      4472      4474      4475
      4472      4474      4476      4472      4474      4477      4473      4472      4474
      4474      4477      4478      4474      4477      4479      4475      4474      4476
      4475      4474      4477      4476      4474      4477      4477      4479      4480
      4477      4479      4481      4478      4477      4479      4479      4481      4482
      4479      4481      4483      4479      4481      4484      4480      4479      4481
      4481      4484      4485      4481      4484      4486      4481      4484      4487
      4482      4481      4483      4482      4481      4484      4483      4481      4484
      4484      4487      4488      4484      4487      4489      4484      4487      4490
      4485      4484      4486      4485      4484      4487      4486      4484      4487
      4487      4490      4491      4487      4490      4492      4487      4490      4493
      4488      4487      4489      4488      4487      4490      4489      4487      4490
      4490      4493      4494      4490      4493      4495      4490      4493      4496
      4491      4490      4492      4491      4490      4493      4492      4490      4493
      4494      4493      4495      4494      4493      4496      4495      4493      4496
      4497      4500      4501      4497      4500      4502      4497      4500      4503
      4498      4497      4499      4498      4497      4500      4499      4497      4500
      4500      4503      4504      4500      4503      4505      4500      4503      4506
      4501      4500      4502      4501      4500      4503      4502      4500      4503
      4503      4506      4507      4503      4506      4508      4503      4506      4509
      4504      4503      4505      4504      4503      4506      4505      4503      4506
      4506      4509      4510      4506      4509      4511      4506      4509      4512
      4507      4506      4508      4507      4506      4509      4508      4506      4509
      4509      4512      4513      4509      4512      4514      4509      4512      4515
      4510      4509      4511      4510      4509      4512      4511      4509      4512
      4512      4515      4516      4512      4515      4517      4512      4515      4518
      4513      4512      4514      4513      4512      4515      4514      4512      4515
      4515      4518      4519      4515      4518      4520      4515      4518      4521
      4516      4515      4517      4516      4515      4518      4517      4515      4518
      4518      4521      4522      4518      4521      4523      4518      4521      4524
      4519      4518      4520      4519      4518      4521      4520      4518      4521
      4521      4524      4525      4521      4524      4526      4521      4524      4527
      4522      4521      4523      4522      4521      4524      4523      4521      4524
      4524      4527      4528      4524      4527      4529      4524      4527      4530
      4525      4524      4526      4525      4524      4527      4526      4524      4527
      4527      4530      4531      4527      4530      4532      4527      4530      4533
      4528      4527      4529      4528      4527      4530      4529      4527      4530
      4530      4533      4534      4530      4533      4535      4530      4533      4536
      4531      4530      4532      4531      4530      4533      4532      4530      4533
      4533      4536      4537      4533      4536      4538      4533      4536      4539
      4534      4533      4535      4534      4533      4536      4535      4533      4536
      4536      4539      4540      4536      4539      4541      4536      4539      4542
      4537      4536      4538      4537      4536      4539      4538      4536      4539
      4539      4542      4543      4539      4542      4544      4539      4542      4545
      4540      4539      4541      4540      4539      4542      4541      4539      4542
      4543      4542      4544      4543      4542      4545      4544      4542      4545
      4546      4547      4548      4546      4547      4549      4546      4547      4550
      4546      4551      4552      4546      4551      4553      4546      4551      4554
      4546      4555      4556      4546      4555      4557      4546      4555      4558
      4546      4559      4560      4546      4559      4561      4546      4559      4562
      4547      4546      4551      4547      4546      4555      4547      4546      4559
      4548      4547      4549      4548      4547      4550      4549      4547      4550
      4551      4546      4555      4551      4546      4559      4552      4551      4553
      4552      4551      4554      4553      4551      4554      4555      4546      4559
      4556      4555      4557      4556      4555      4558      4557      4555      4558
      4559      4562      4563      4559      4562      4564      4559      4562      4568
      4560      4559      4561      4560      4559      4562      4561      4559      4562
      4562      4568      4565      4563      4562      4564      4563      4562      4568
      4564      4562      4568      4565      4569      4570      4566      4565      4567
      4566      4565      4568      4566      4565      4569      4567      4565      4568
      4567      4565      4569      4568      4565      4569      4569      4570      4571
      4569      4570      4572      4569      4570      4573      4570      4573      4574
      4570      4573      4575      4570      4573      4581      4571      4570      4572
      4571      4570      4573      4572      4570      4573      4573      4575      4576
      4573      4581      4582      4573      4581      4583      4573      4581      4584
      4574      4573      4575      4574      4573      4581      4575      4573      4581
      4575      4576      4577      4575      4576      4578      4576      4578      4579
      4576      4578      4580      4576      4578      4590      4577      4576      4578
      4578      4590      4591      4578      4590      4592      4578      4590      4593
      4579      4578      4580      4579      4578      4590      4580      4578      4590
      4581      4584      4585      4582      4581      4583      4582      4581      4584
      4583      4581      4584      4584      4585      4586      4584      4585      4587
      4585      4587      4588      4585      4587      4589      4585      4587      4635
      4586      4585      4587      4587      4635      4636      4587      4635      4637
      4587      4635      4638      4588      4587      4589      4588      4587      4635
      4589      4587      4635      4590      4593      4594      4590      4593      4595
      4590      4593      4596      4591      4590      4592      4591      4590      4593
      4592      4590      4593      4593      4596      4597      4593      4596      4598
      4593      4596      4599      4594      4593      4595      4594      4593      4596
      4595      4593      4596      4596      4599      4600      4596      4599      4601
      4596      4599      4602      4597      4596      4598      4597      4596      4599
      4598      4596      4599      4599      4602      4603      4599      4602      4604
      4599      4602      4605      4600      4599      4601      4600      4599      4602
      4601      4599      4602      4602      4605      4606      4602      4605      4607
      4602      4605      4608      4603      4602      4604      4603      4602      4605
      4604      4602      4605      4605      4608      4609      4605      4608      4610
      4606      4605      4607      4606      4605      4608      4607      4605      4608
      4608      4610      4611      4608      4610      4612      4609      4608      4610
      4610      4612      4613      4610      4612      4614      4610      4612      4615
      4611      4610      4612      4612      4615      4616      4612      4615      4617
      4613      4612      4614      4613      4612      4615      4614      4612      4615
      4615      4617      4618      4615      4617      4619      4616      4615      4617
      4617      4619      4620      4617      4619      4621      4617      4619      4622
      4618      4617      4619      4619      4622      4623      4619      4622      4624
      4619      4622      4625      4620      4619      4621      4620      4619      4622
      4621      4619      4622      4622      4625      4626      4622      4625      4627
      4622      4625      4628      4623      4622      4624      4623      4622      4625
      4624      4622      4625      4625      4628      4629      4625      4628      4630
      4625      4628      4631      4626      4625      4627      4626      4625      4628
      4627      4625      4628      4628      4631      4632      4628      4631      4633
      4628      4631      4634      4629      4628      4630      4629      4628      4631
      4630      4628      4631      4632      4631      4633      4632      4631      4634
      4633      4631      4634      4635      4638      4639      4635      4638      4640
      4635      4638      4641      4636      4635      4637      4636      4635      4638
      4637      4635      4638      4638      4641      4642      4638      4641      4643
      4638      4641      4644      4639      4638      4640      4639      4638      4641
      4640      4638      4641      4641      4644      4645      4641      4644      4646
      4641      4644      4647      4642      4641      4643      4642      4641      4644
      4643      4641      4644      4644      4647      4648      4644      4647      4649
      4644      4647      4650      4645      4644      4646      4645      4644      4647
      4646      4644      4647      4647      4650      4651      4647      4650      4652
      4647      4650      4653      4648      4647      4649      4648      4647      4650
      4649      4647      4650      4650      4653      4654      4650      4653      4655
      4650      4653      4656      4651      4650      4652      4651      4650      4653
      4652      4650      4653      4653      4656      4657      4653      4656      4658
      4653      4656      4659      4654      4653      4655      4654      4653      4656
      4655      4653      4656      4656      4659      4660      4656      4659      4661
      4656      4659      4662      4657      4656      4658      4657      4656      4659
      4658      4656      4659      4659      4662      4663      4659      4662      4664
      4659      4662      4665      4660      4659      4661      4660      4659      4662
      4661      4659      4662      4662      4665      4666      4662      4665      4667
      4662      4665      4668      4663      4662      4664      4663      4662      4665
      4664      4662      4665      4665      4668      4669      4665      4668      4670
      4665      4668      4671      4666      4665      4667      4666      4665      4668
      4667      4665      4668      4668      4671      4672      4668      4671      4673
      4668      4671      4674      4669      4668      4670      4669      4668      4671
      4670      4668      4671      4671      4674      4675      4671      4674      4676
      4671      4674      4677      4672      4671      4673      4672      4671      4674
      4673      4671      4674      4674      4677      4678      4674      4677      4679
      4674      4677      4680      4675      4674      4676      4675      4674      4677
      4676      4674      4677      4677      4680      4681      4677      4680      4682
      4677      4680      4683      4678      4677      4679      4678      4677      4680
      4679      4677      4680      4681      4680      4682      4681      4680      4683
      4682      4680      4683      4684      4686      4687      4684      4688      4689
      4684      4688      4690      4684      4688      4691      4684      4730      4727
      4684      4730      4731      4684      4730      4732      4685      4684      4686
      4685      4684      4688      4685      4684      4730      4686      4684      4688
      4686      4684      4730      4688      4684      4730      4688      4691      4692
      4688      4691      4722      4689      4688      4690      4689      4688      4691
      4690      4688      4691      4691      4692      4693      4691      4692      4694
      4691      4722      4720      4691      4722      4723      4691      4722      4727
      4692      4691      4722      4692      4694      4695      4692      4694      4696
      4692      4694      4697      4693      4692      4694      4694      4697      4698
      4694      4697      4699      4694      4697      4720      4695      4694      4696
      4695      4694      4697      4696      4694      4697      4697      4699      4700
      4697      4699      4701      4697      4699      4709      4697      4720      4717
      4697      4720      4721      4697      4720      4722      4698      4697      4699
      4698      4697      4720      4699      4697      4720      4699      4701      4702
      4699      4701      4703      4699      4701      4704      4699      4709      4707
      4699      4709      4710      4699      4709      4714      4700      4699      4701
      4700      4699      4709      4701      4699      4709      4701      4704      4705
      4701      4704      4706      4701      4704      4707      4702      4701      4703
      4702      4701      4704      4703      4701      4704      4704      4707      4708
      4704      4707      4709      4704      4707      4733      4705      4704      4706
      4705      4704      4707      4706      4704      4707      4707      4709      4710
      4707      4709      4714      4707      4733      4734      4707      4733      4735
      4707      4733      4739      4708      4707      4709      4708      4707      4733
      4709      4707      4733      4709      4710      4711      4709      4710      4712
      4709      4710      4713      4709      4714      4715      4709      4714      4716
      4709      4714      4717      4710      4709      4714      4711      4710      4712
      4711      4710      4713      4712      4710      4713      4714      4717      4718
      4714      4717      4719      4714      4717      4720      4715      4714      4716
      4715      4714      4717      4716      4714      4717      4717      4720      4721
      4717      4720      4722      4718      4717      4719      4718      4717      4720
      4719      4717      4720      4720      4722      4723      4720      4722      4727
      4721      4720      4722      4722      4723      4724      4722      4723      4725
      4722      4723      4726      4722      4727      4728      4722      4727      4729
      4722      4727      4730      4723      4722      4727      4724      4723      4725
      4724      4723      4726      4725      4723      4726      4727      4730      4731
      4727      4730      4732      4728      4727      4729      4728      4727      4730
      4729      4727      4730      4731      4730      4732      4733      4735      4736
      4733      4735      4737      4733      4735      4738      4733      4739      4740
      4733      4739      4741      4733      4739      4742      4734      4733      4735
      4734      4733      4739      4735      4733      4739      4736      4735      4737
      4736      4735      4738      4737      4735      4738      4739      4742      4743
      4739      4742      4744      4739      4742      4745      4740      4739      4741
      4740      4739      4742      4741      4739      4742      4742      4745      4746
      4742      4745      4747      4742      4745      4748      4743      4742      4744
      4743      4742      4745      4744      4742      4745      4745      4748      4749
      4745      4748      4750      4745      4748      4754      4746      4745      4747
      4746      4745      4748      4747      4745      4748      4748      4750      4751
      4748      4750      4752      4748      4750      4753      4748      4754      4755
      4748      4754      4756      4748      4754      4757      4749      4748      4750
      4749      4748      4754      4750      4748      4754      4751      4750      4752
      4751      4750      4753      4752      4750      4753      4755      4754      4756
      4755      4754      4757      4756      4754      4757      4758      4760      4761
      4758      4762      4763      4758      4762      4764      4758      4762      4765
      4758      4804      4801      4758      4804      4805      4758      4804      4806
      4759      4758      4760      4759      4758      4762      4759      4758      4804
      4760      4758      4762      4760      4758      4804      4762      4758      4804
      4762      4765      4766      4762      4765      4796      4763      4762      4764
      4763      4762      4765      4764      4762      4765      4765      4766      4767
      4765      4766      4768      4765      4796      4794      4765      4796      4797
      4765      4796      4801      4766      4765      4796      4766      4768      4769
      4766      4768      4770      4766      4768      4771      4767      4766      4768
      4768      4771      4772      4768      4771      4773      4768      4771      4794
      4769      4768      4770      4769      4768      4771      4770      4768      4771
      4771      4773      4774      4771      4773      4775      4771      4773      4783
      4771      4794      4791      4771      4794      4795      4771      4794      4796
      4772      4771      4773      4772      4771      4794      4773      4771      4794
      4773      4775      4776      4773      4775      4777      4773      4775      4778
      4773      4783      4781      4773      4783      4784      4773      4783      4788
      4774      4773      4775      4774      4773      4783      4775      4773      4783
      4775      4778      4779      4775      4778      4780      4775      4778      4781
      4776      4775      4777      4776      4775      4778      4777      4775      4778
      4778      4781      4782      4778      4781      4783      4778      4781      4807
      4779      4778      4780      4779      4778      4781      4780      4778      4781
      4781      4783      4784      4781      4783      4788      4781      4807      4808
      4781      4807      4809      4781      4807      4813      4782      4781      4783
      4782      4781      4807      4783      4781      4807      4783      4784      4785
      4783      4784      4786      4783      4784      4787      4783      4788      4789
      4783      4788      4790      4783      4788      4791      4784      4783      4788
      4785      4784      4786      4785      4784      4787      4786      4784      4787
      4788      4791      4792      4788      4791      4793      4788      4791      4794
      4789      4788      4790      4789      4788      4791      4790      4788      4791
      4791      4794      4795      4791      4794      4796      4792      4791      4793
      4792      4791      4794      4793      4791      4794      4794      4796      4797
      4794      4796      4801      4795      4794      4796      4796      4797      4798
      4796      4797      4799      4796      4797      4800      4796      4801      4802
      4796      4801      4803      4796      4801      4804      4797      4796      4801
      4798      4797      4799      4798      4797      4800      4799      4797      4800
      4801      4804      4805      4801      4804      4806      4802      4801      4803
      4802      4801      4804      4803      4801      4804      4805      4804      4806
      4807      4809      4810      4807      4809      4811      4807      4809      4812
      4807      4813      4814      4807      4813      4815      4807      4813      4816
      4808      4807      4809      4808      4807      4813      4809      4807      4813
      4810      4809      4811      4810      4809      4812      4811      4809      4812
      4813      4816      4817      4813      4816      4818      4813      4816      4819
      4814      4813      4815      4814      4813      4816      4815      4813      4816
      4816      4819      4820      4816      4819      4821      4816      4819      4822
      4817      4816      4818      4817      4816      4819      4818      4816      4819
      4819      4822      4823      4819      4822      4824      4819      4822      4828
      4820      4819      4821      4820      4819      4822      4821      4819      4822
      4822      4824      4825      4822      4824      4826      4822      4824      4827
      4822      4828      4829      4822      4828      4830      4822      4828      4831
      4823      4822      4824      4823      4822      4828      4824      4822      4828
      4825      4824      4826      4825      4824      4827      4826      4824      4827
      4829      4828      4830      4829      4828      4831      4830      4828      4831
      4832      4834      4835      4832      4836      4837      4832      4836      4838
      4832      4836      4839      4832      4878      4875      4832      4878      4879
      4832      4878      4880      4833      4832      4834      4833      4832      4836
      4833      4832      4878      4834      4832      4836      4834      4832      4878
      4836      4832      4878      4836      4839      4840      4836      4839      4870
      4837      4836      4838      4837      4836      4839      4838      4836      4839
      4839      4840      4841      4839      4840      4842      4839      4870      4868
      4839      4870      4871      4839      4870      4875      4840      4839      4870
      4840      4842      4843      4840      4842      4844      4840      4842      4845
      4841      4840      4842      4842      4845      4846      4842      4845      4847
      4842      4845      4868      4843      4842      4844      4843      4842      4845
      4844      4842      4845      4845      4847      4848      4845      4847      4849
      4845      4847      4857      4845      4868      4865      4845      4868      4869
      4845      4868      4870      4846      4845      4847      4846      4845      4868
      4847      4845      4868      4847      4849      4850      4847      4849      4851
      4847      4849      4852      4847      4857      4855      4847      4857      4858
      4847      4857      4862      4848      4847      4849      4848      4847      4857
      4849      4847      4857      4849      4852      4853      4849      4852      4854
      4849      4852      4855      4850      4849      4851      4850      4849      4852
      4851      4849      4852      4852      4855      4856      4852      4855      4857
      4852      4855      4881      4853      4852      4854      4853      4852      4855
      4854      4852      4855      4855      4857      4858      4855      4857      4862
      4855      4881      4882      4855      4881      4883      4855      4881      4887
      4856      4855      4857      4856      4855      4881      4857      4855      4881
      4857      4858      4859      4857      4858      4860      4857      4858      4861
      4857      4862      4863      4857      4862      4864      4857      4862      4865
      4858      4857      4862      4859      4858      4860      4859      4858      4861
      4860      4858      4861      4862      4865      4866      4862      4865      4867
      4862      4865      4868      4863      4862      4864      4863      4862      4865
      4864      4862      4865      4865      4868      4869      4865      4868      4870
      4866      4865      4867      4866      4865      4868      4867      4865      4868
      4868      4870      4871      4868      4870      4875      4869      4868      4870
      4870      4871      4872      4870      4871      4873      4870      4871      4874
      4870      4875      4876      4870      4875      4877      4870      4875      4878
      4871      4870      4875      4872      4871      4873      4872      4871      4874
      4873      4871      4874      4875      4878      4879      4875      4878      4880
      4876      4875      4877      4876      4875      4878      4877      4875      4878
      4879      4878      4880      4881      4883      4884      4881      4883      4885
      4881      4883      4886      4881      4887      4888      4881      4887      4889
      4881      4887      4890      4882      4881      4883      4882      4881      4887
      4883      4881      4887      4884      4883      4885      4884      4883      4886
      4885      4883      4886      4887      4890      4891      4887      4890      4892
      4887      4890      4893      4888      4887      4889      4888      4887      4890
      4889      4887      4890      4890      4893      4894      4890      4893      4895
      4890      4893      4896      4891      4890      4892      4891      4890      4893
      4892      4890      4893      4893      4896      4897      4893      4896      4898
      4893      4896      4902      4894      4893      4895      4894      4893      4896
      4895      4893      4896      4896      4898      4899      4896      4898      4900
      4896      4898      4901      4896      4902      4903      4896      4902      4904
      4896      4902      4905      4897      4896      4898      4897      4896      4902
      4898      4896      4902      4899      4898      4900      4899      4898      4901
      4900      4898      4901      4903      4902      4904      4903      4902      4905
      4904      4902      4905      4906      4908      4909      4906      4910      4911
      4906      4910      4912      4906      4910      4913      4906      4952      4949
      4906      4952      4953      4906      4952      4954      4907      4906      4908
      4907      4906      4910      4907      4906      4952      4908      4906      4910
      4908      4906      4952      4910      4906      4952      4910      4913      4914
      4910      4913      4944      4911      4910      4912      4911      4910      4913
      4912      4910      4913      4913      4914      4915      4913      4914      4916
      4913      4944      4942      4913      4944      4945      4913      4944      4949
      4914      4913      4944      4914      4916      4917      4914      4916      4918
      4914      4916      4919      4915      4914      4916      4916      4919      4920
      4916      4919      4921      4916      4919      4942      4917      4916      4918
      4917      4916      4919      4918      4916      4919      4919      4921      4922
      4919      4921      4923      4919      4921      4931      4919      4942      4939
      4919      4942      4943      4919      4942      4944      4920      4919      4921
      4920      4919      4942      4921      4919      4942      4921      4923      4924
      4921      4923      4925      4921      4923      4926      4921      4931      4929
      4921      4931      4932      4921      4931      4936      4922      4921      4923
      4922      4921      4931      4923      4921      4931      4923      4926      4927
      4923      4926      4928      4923      4926      4929      4924      4923      4925
      4924      4923      4926      4925      4923      4926      4926      4929      4930
      4926      4929      4931      4926      4929      4955      4927      4926      4928
      4927      4926      4929      4928      4926      4929      4929      4931      4932
      4929      4931      4936      4929      4955      4956      4929      4955      4957
      4929      4955      4961      4930      4929      4931      4930      4929      4955
      4931      4929      4955      4931      4932      4933      4931      4932      4934
      4931      4932      4935      4931      4936      4937      4931      4936      4938
      4931      4936      4939      4932      4931      4936      4933      4932      4934
      4933      4932      4935      4934      4932      4935      4936      4939      4940
      4936      4939      4941      4936      4939      4942      4937      4936      4938
      4937      4936      4939      4938      4936      4939      4939      4942      4943
      4939      4942      4944      4940      4939      4941      4940      4939      4942
      4941      4939      4942      4942      4944      4945      4942      4944      4949
      4943      4942      4944      4944      4945      4946      4944      4945      4947
      4944      4945      4948      4944      4949      4950      4944      4949      4951
      4944      4949      4952      4945      4944      4949      4946      4945      4947
      4946      4945      4948      4947      4945      4948      4949      4952      4953
      4949      4952      4954      4950      4949      4951      4950      4949      4952
      4951      4949      4952      4953      4952      4954      4955      4957      4958
      4955      4957      4959      4955      4957      4960      4955      4961      4962
      4955      4961      4963      4955      4961      4964      4956      4955      4957
      4956      4955      4961      4957      4955      4961      4958      4957      4959
      4958      4957      4960      4959      4957      4960      4961      4964      4965
      4961      4964      4966      4961      4964      4967      4962      4961      4963
      4962      4961      4964      4963      4961      4964      4964      4967      4968
      4964      4967      4969      4964      4967      4970      4965      4964      4966
      4965      4964      4967      4966      4964      4967      4967      4970      4971
      4967      4970      4972      4967      4970      4976      4968      4967      4969
      4968      4967      4970      4969      4967      4970      4970      4972      4973
      4970      4972      4974      4970      4972      4975      4970      4976      4977
      4970      4976      4978      4970      4976      4979      4971      4970      4972
      4971      4970      4976      4972      4970      4976      4973      4972      4974
      4973      4972      4975      4974      4972      4975      4977      4976      4978
      4977      4976      4979      4978      4976      4979      4980      4984      4985
      4980      4984      4986      4980      4984      4989      4981      4980      4982
      4981      4980      4983      4981      4980      4984      4982      4980      4983
      4982      4980      4984      4983      4980      4984      4984      4986      4987
      4984      4986      4988      4984      4989      4990      4984      4989      4991
      4984      4989      4995      4985      4984      4986      4985      4984      4989
      4986      4984      4989      4987      4986      4988      4989      4995      4992
      4990      4989      4991      4990      4989      4995      4991      4989      4995
      4992      4996      4997      4993      4992      4994      4993      4992      4995
      4993      4992      4996      4994      4992      4995      4994      4992      4996
      4995      4992      4996      4996      4997      4998      4996      4997      4999
      4996      4997      5000      4997      5000      5001      4997      5000      5002
      4997      5000      5008      4998      4997      4999      4998      4997      5000
      4999      4997      5000      5000      5002      5003      5000      5008      5009
      5000      5008      5010      5000      5008      5011      5001      5000      5002
      5001      5000      5008      5002      5000      5008      5002      5003      5004
      5002      5003      5005      5003      5005      5006      5003      5005      5007
      5003      5005      5017      5004      5003      5005      5005      5017      5018
      5005      5017      5019      5005      5017      5020      5006      5005      5007
      5006      5005      5017      5007      5005      5017      5008      5011      5012
      5009      5008      5010      5009      5008      5011      5010      5008      5011
      5011      5012      5013      5011      5012      5014      5012      5014      5015
      5012      5014      5016      5012      5014      5064      5013      5012      5014
      5014      5064      5065      5014      5064      5066      5014      5064      5067
      5015      5014      5016      5015      5014      5064      5016      5014      5064
      5017      5020      5021      5017      5020      5022      5017      5020      5023
      5018      5017      5019      5018      5017      5020      5019      5017      5020
      5020      5023      5024      5020      5023      5025      5021      5020      5022
      5021      5020      5023      5022      5020      5023      5023      5025      5026
      5023      5025      5027      5024      5023      5025      5025      5027      5028
      5025      5027      5029      5025      5027      5030      5026      5025      5027
      5027      5030      5031      5027      5030      5032      5028      5027      5029
      5028      5027      5030      5029      5027      5030      5030      5032      5033
      5030      5032      5034      5031      5030      5032      5032      5034      5035
      5032      5034      5036      5032      5034      5037      5033      5032      5034
      5034      5037      5038      5034      5037      5039      5035      5034      5036
      5035      5034      5037      5036      5034      5037      5037      5039      5040
      5037      5039      5041      5038      5037      5039      5039      5041      5042
      5039      5041      5043      5039      5041      5044      5040      5039      5041
      5041      5044      5045      5041      5044      5046      5042      5041      5043
      5042      5041      5044      5043      5041      5044      5044      5046      5047
      5044      5046      5048      5045      5044      5046      5046      5048      5049
      5046      5048      5050      5046      5048      5051      5047      5046      5048
      5048      5051      5052      5048      5051      5053      5048      5051      5054
      5049      5048      5050      5049      5048      5051      5050      5048      5051
      5051      5054      5055      5051      5054      5056      5051      5054      5057
      5052      5051      5053      5052      5051      5054      5053      5051      5054
      5054      5057      5058      5054      5057      5059      5054      5057      5060
      5055      5054      5056      5055      5054      5057      5056      5054      5057
      5057      5060      5061      5057      5060      5062      5057      5060      5063
      5058      5057      5059      5058      5057      5060      5059      5057      5060
      5061      5060      5062      5061      5060      5063      5062      5060      5063
      5064      5067      5068      5064      5067      5069      5064      5067      5070
      5065      5064      5066      5065      5064      5067      5066      5064      5067
      5067      5070      5071      5067      5070      5072      5067      5070      5073
      5068      5067      5069      5068      5067      5070      5069      5067      5070
      5070      5073      5074      5070      5073      5075      5070      5073      5076
      5071      5070      5072      5071      5070      5073      5072      5070      5073
      5073      5076      5077      5073      5076      5078      5073      5076      5079
      5074      5073      5075      5074      5073      5076      5075      5073      5076
      5076      5079      5080      5076      5079      5081      5076      5079      5082
      5077      5076      5078      5077      5076      5079      5078      5076      5079
      5079      5082      5083      5079      5082      5084      5079      5082      5085
      5080      5079      5081      5080      5079      5082      5081      5079      5082
      5082      5085      5086      5082      5085      5087      5082      5085      5088
      5083      5082      5084      5083      5082      5085      5084      5082      5085
      5085      5088      5089      5085      5088      5090      5085      5088      5091
      5086      5085      5087      5086      5085      5088      5087      5085      5088
      5088      5091      5092      5088      5091      5093      5088      5091      5094
      5089      5088      5090      5089      5088      5091      5090      5088      5091
      5091      5094      5095      5091      5094      5096      5091      5094      5097
      5092      5091      5093      5092      5091      5094      5093      5091      5094
      5094      5097      5098      5094      5097      5099      5094      5097      5100
      5095      5094      5096      5095      5094      5097      5096      5094      5097
      5097      5100      5101      5097      5100      5102      5097      5100      5103
      5098      5097      5099      5098      5097      5100      5099      5097      5100
      5100      5103      5104      5100      5103      5105      5100      5103      5106
      5101      5100      5102      5101      5100      5103      5102      5100      5103
      5103      5106      5107      5103      5106      5108      5103      5106      5109
      5104      5103      5105      5104      5103      5106      5105      5103      5106
      5106      5109      5110      5106      5109      5111      5106      5109      5112
      5107      5106      5108      5107      5106      5109      5108      5106      5109
      5110      5109      5111      5110      5109      5112      5111      5109      5112
      5113      5117      5118      5113      5117      5119      5113      5117      5120
      5114      5113      5115      5114      5113      5116      5114      5113      5117
      5115      5113      5116      5115      5113      5117      5116      5113      5117
      5117      5120      5121      5117      5120      5122      5117      5120      5126
      5118      5117      5119      5118      5117      5120      5119      5117      5120
      5120      5126      5123      5121      5120      5122      5121      5120      5126
      5122      5120      5126      5123      5127      5128      5124      5123      5125
      5124      5123      5126      5124      5123      5127      5125      5123      5126
      5125      5123      5127      5126      5123      5127      5127      5128      5129
      5127      5128      5130      5127      5128      5131      5128      5131      5132
      5128      5131      5133      5128      5131      5139      5129      5128      5130
      5129      5128      5131      5130      5128      5131      5131      5133      5134
      5131      5139      5140      5131      5139      5141      5131      5139      5142
      5132      5131      5133      5132      5131      5139      5133      5131      5139
      5133      5134      5135      5133      5134      5136      5134      5136      5137
      5134      5136      5138      5134      5136      5148      5135      5134      5136
      5136      5148      5149      5136      5148      5150      5136      5148      5151
      5137      5136      5138      5137      5136      5148      5138      5136      5148
      5139      5142      5143      5140      5139      5141      5140      5139      5142
      5141      5139      5142      5142      5143      5144      5142      5143      5145
      5143      5145      5146      5143      5145      5147      5143      5145      5195
      5144      5143      5145      5145      5195      5196      5145      5195      5197
      5145      5195      5198      5146      5145      5147      5146      5145      5195
      5147      5145      5195      5148      5151      5152      5148      5151      5153
      5148      5151      5154      5149      5148      5150      5149      5148      5151
      5150      5148      5151      5151      5154      5155      5151      5154      5156
      5152      5151      5153      5152      5151      5154      5153      5151      5154
      5154      5156      5157      5154      5156      5158      5155      5154      5156
      5156      5158      5159      5156      5158      5160      5156      5158      5161
      5157      5156      5158      5158      5161      5162      5158      5161      5163
      5159      5158      5160      5159      5158      5161      5160      5158      5161
      5161      5163      5164      5161      5163      5165      5162      5161      5163
      5163      5165      5166      5163      5165      5167      5163      5165      5168
      5164      5163      5165      5165      5168      5169      5165      5168      5170
      5166      5165      5167      5166      5165      5168      5167      5165      5168
      5168      5170      5171      5168      5170      5172      5169      5168      5170
      5170      5172      5173      5170      5172      5174      5170      5172      5175
      5171      5170      5172      5172      5175      5176      5172      5175      5177
      5173      5172      5174      5173      5172      5175      5174      5172      5175
      5175      5177      5178      5175      5177      5179      5176      5175      5177
      5177      5179      5180      5177      5179      5181      5177      5179      5182
      5178      5177      5179      5179      5182      5183      5179      5182      5184
      5179      5182      5185      5180      5179      5181      5180      5179      5182
      5181      5179      5182      5182      5185      5186      5182      5185      5187
      5182      5185      5188      5183      5182      5184      5183      5182      5185
      5184      5182      5185      5185      5188      5189      5185      5188      5190
      5185      5188      5191      5186      5185      5187      5186      5185      5188
      5187      5185      5188      5188      5191      5192      5188      5191      5193
      5188      5191      5194      5189      5188      5190      5189      5188      5191
      5190      5188      5191      5192      5191      5193      5192      5191      5194
      5193      5191      5194      5195      5198      5199      5195      5198      5200
      5195      5198      5201      5196      5195      5197      5196      5195      5198
      5197      5195      5198      5198      5201      5202      5198      5201      5203
      5198      5201      5204      5199      5198      5200      5199      5198      5201
      5200      5198      5201      5201      5204      5205      5201      5204      5206
      5201      5204      5207      5202      5201      5203      5202      5201      5204
      5203      5201      5204      5204      5207      5208      5204      5207      5209
      5204      5207      5210      5205      5204      5206      5205      5204      5207
      5206      5204      5207      5207      5210      5211      5207      5210      5212
      5207      5210      5213      5208      5207      5209      5208      5207      5210
      5209      5207      5210      5210      5213      5214      5210      5213      5215
      5210      5213      5216      5211      5210      5212      5211      5210      5213
      5212      5210      5213      5213      5216      5217      5213      5216      5218
      5213      5216      5219      5214      5213      5215      5214      5213      5216
      5215      5213      5216      5216      5219      5220      5216      5219      5221
      5216      5219      5222      5217      5216      5218      5217      5216      5219
      5218      5216      5219      5219      5222      5223      5219      5222      5224
      5219      5222      5225      5220      5219      5221      5220      5219      5222
      5221      5219      5222      5222      5225      5226      5222      5225      5227
      5222      5225      5228      5223      5222      5224      5223      5222      5225
      5224      5222      5225      5225      5228      5229      5225      5228      5230
      5225      5228      5231      5226      5225      5227      5226      5225      5228
      5227      5225      5228      5228      5231      5232      5228      5231      5233
      5228      5231      5234      5229      5228      5230      5229      5228      5231
      5230      5228      5231      5231      5234      5235      5231      5234      5236
      5231      5234      5237      5232      5231      5233      5232      5231      5234
      5233      5231      5234      5234      5237      5238      5234      5237      5239
      5234      5237      5240      5235      5234      5236      5235      5234      5237
      5236      5234      5237      5237      5240      5241      5237      5240      5242
      5237      5240      5243      5238      5237      5239      5238      5237      5240
      5239      5237      5240      5241      5240      5242      5241      5240      5243
      5242      5240      5243      5244      5246      5247      5244      5248      5249
      5244      5248      5250      5244      5248      5251      5244      5290      5287
      5244      5290      5291      5244      5290      5292      5245      5244      5246
      5245      5244      5248      5245      5244      5290      5246      5244      5248
      5246      5244      5290      5248      5244      5290      5248      5251      5252
      5248      5251      5282      5249      5248      5250      5249      5248      5251
      5250      5248      5251      5251      5252      5253      5251      5252      5254
      5251      5282      5280      5251      5282      5283      5251      5282      5287
      5252      5251      5282      5252      5254      5255      5252      5254      5256
      5252      5254      5257      5253      5252      5254      5254      5257      5258
      5254      5257      5259      5254      5257      5280      5255      5254      5256
      5255      5254      5257      5256      5254      5257      5257      5259      5260
      5257      5259      5261      5257      5259      5269      5257      5280      5277
      5257      5280      5281      5257      5280      5282      5258      5257      5259
      5258      5257      5280      5259      5257      5280      5259      5261      5262
      5259      5261      5263      5259      5261      5264      5259      5269      5267
      5259      5269      5270      5259      5269      5274      5260      5259      5261
      5260      5259      5269      5261      5259      5269      5261      5264      5265
      5261      5264      5266      5261      5264      5267      5262      5261      5263
      5262      5261      5264      5263      5261      5264      5264      5267      5268
      5264      5267      5269      5264      5267      5293      5265      5264      5266
      5265      5264      5267      5266      5264      5267      5267      5269      5270
      5267      5269      5274      5267      5293      5294      5267      5293      5295
      5267      5293      5299      5268      5267      5269      5268      5267      5293
      5269      5267      5293      5269      5270      5271      5269      5270      5272
      5269      5270      5273      5269      5274      5275      5269      5274      5276
      5269      5274      5277      5270      5269      5274      5271      5270      5272
      5271      5270      5273      5272      5270      5273      5274      5277      5278
      5274      5277      5279      5274      5277      5280      5275      5274      5276
      5275      5274      5277      5276      5274      5277      5277      5280      5281
      5277      5280      5282      5278      5277      5279      5278      5277      5280
      5279      5277      5280      5280      5282      5283      5280      5282      5287
      5281      5280      5282      5282      5283      5284      5282      5283      5285
      5282      5283      5286      5282      5287      5288      5282      5287      5289
      5282      5287      5290      5283      5282      5287      5284      5283      5285
      5284      5283      5286      5285      5283      5286      5287      5290      5291
      5287      5290      5292      5288      5287      5289      5288      5287      5290
      5289      5287      5290      5291      5290      5292      5293      5295      5296
      5293      5295      5297      5293      5295      5298      5293      5299      5300
      5293      5299      5301      5293      5299      5302      5294      5293      5295
      5294      5293      5299      5295      5293      5299      5296      5295      5297
      5296      5295      5298      5297      5295      5298      5299      5302      5303
      5299      5302      5304      5299      5302      5305      5300      5299      5301
      5300      5299      5302      5301      5299      5302      5302      5305      5306
      5302      5305      5307      5302      5305      5308      5303      5302      5304
      5303      5302      5305      5304      5302      5305      5305      5308      5309
      5305      5308      5310      5305      5308      5314      5306      5305      5307
      5306      5305      5308      5307      5305      5308      5308      5310      5311
      5308      5310      5312      5308      5310      5313      5308      5314      5315
      5308      5314      5316      5308      5314      5317      5309      5308      5310
      5309      5308      5314      5310      5308      5314      5311      5310      5312
      5311      5310      5313      5312      5310      5313      5315      5314      5316
      5315      5314      5317      5316      5314      5317      5318      5320      5321
      5318      5322      5323      5318      5322      5324      5318      5322      5325
      5318      5364      5361      5318      5364      5365      5318      5364      5366
      5319      5318      5320      5319      5318      5322      5319      5318      5364
      5320      5318      5322      5320      5318      5364      5322      5318      5364
      5322      5325      5326      5322      5325      5356      5323      5322      5324
      5323      5322      5325      5324      5322      5325      5325      5326      5327
      5325      5326      5328      5325      5356      5354      5325      5356      5357
      5325      5356      5361      5326      5325      5356      5326      5328      5329
      5326      5328      5330      5326      5328      5331      5327      5326      5328
      5328      5331      5332      5328      5331      5333      5328      5331      5354
      5329      5328      5330      5329      5328      5331      5330      5328      5331
      5331      5333      5334      5331      5333      5335      5331      5333      5343
      5331      5354      5351      5331      5354      5355      5331      5354      5356
      5332      5331      5333      5332      5331      5354      5333      5331      5354
      5333      5335      5336      5333      5335      5337      5333      5335      5338
      5333      5343      5341      5333      5343      5344      5333      5343      5348
      5334      5333      5335      5334      5333      5343      5335      5333      5343
      5335      5338      5339      5335      5338      5340      5335      5338      5341
      5336      5335      5337      5336      5335      5338      5337      5335      5338
      5338      5341      5342      5338      5341      5343      5338      5341      5367
      5339      5338      5340      5339      5338      5341      5340      5338      5341
      5341      5343      5344      5341      5343      5348      5341      5367      5368
      5341      5367      5369      5341      5367      5373      5342      5341      5343
      5342      5341      5367      5343      5341      5367      5343      5344      5345
      5343      5344      5346      5343      5344      5347      5343      5348      5349
      5343      5348      5350      5343      5348      5351      5344      5343      5348
      5345      5344      5346      5345      5344      5347      5346      5344      5347
      5348      5351      5352      5348      5351      5353      5348      5351      5354
      5349      5348      5350      5349      5348      5351      5350      5348      5351
      5351      5354      5355      5351      5354      5356      5352      5351      5353
      5352      5351      5354      5353      5351      5354      5354      5356      5357
      5354      5356      5361      5355      5354      5356      5356      5357      5358
      5356      5357      5359      5356      5357      5360      5356      5361      5362
      5356      5361      5363      5356      5361      5364      5357      5356      5361
      5358      5357      5359      5358      5357      5360      5359      5357      5360
      5361      5364      5365      5361      5364      5366      5362      5361      5363
      5362      5361      5364      5363      5361      5364      5365      5364      5366
      5367      5369      5370      5367      5369      5371      5367      5369      5372
      5367      5373      5374      5367      5373      5375      5367      5373      5376
      5368      5367      5369      5368      5367      5373      5369      5367      5373
      5370      5369      5371      5370      5369      5372      5371      5369      5372
      5373      5376      5377      5373      5376      5378      5373      5376      5379
      5374      5373      5375      5374      5373      5376      5375      5373      5376
      5376      5379      5380      5376      5379      5381      5376      5379      5382
      5377      5376      5378      5377      5376      5379      5378      5376      5379
      5379      5382      5383      5379      5382      5384      5379      5382      5388
      5380      5379      5381      5380      5379      5382      5381      5379      5382
      5382      5384      5385      5382      5384      5386      5382      5384      5387
      5382      5388      5389      5382      5388      5390      5382      5388      5391
      5383      5382      5384      5383      5382      5388      5384      5382      5388
      5385      5384      5386      5385      5384      5387      5386      5384      5387
      5389      5388      5390      5389      5388      5391      5390      5388      5391
      5392      5393      5394      5392      5393      5395      5392      5393      5408
      5392      5396      5397      5392      5396      5398      5392      5396      5399
      5392      5400      5401      5392      5400      5402      5392      5400      5403
      5392      5404      5405      5392      5404      5406      5392      5404      5407
      5393      5392      5396      5393      5392      5400      5393      5392      5404
      5393      5408      5409      5393      5408      5410      5393      5408      5414
      5394      5393      5395      5394      5393      5408      5395      5393      5408
      5396      5392      5400      5396      5392      5404      5397      5396      5398
      5397      5396      5399      5398      5396      5399      5400      5392      5404
      5401      5400      5402      5401      5400      5403      5402      5400      5403
      5405      5404      5406      5405      5404      5407      5406      5404      5407
      5408      5414      5411      5409      5408      5410      5409      5408      5414
      5410      5408      5414      5411      5415      5416      5412      5411      5413
      5412      5411      5414      5412      5411      5415      5413      5411      5414
      5413      5411      5415      5414      5411      5415      5415      5416      5417
      5415      5416      5418      5415      5416      5419      5416      5419      5420
      5416      5419      5421      5416      5419      5427      5417      5416      5418
      5417      5416      5419      5418      5416      5419      5419      5421      5422
      5419      5427      5428      5419      5427      5429      5419      5427      5430
      5420      5419      5421      5420      5419      5427      5421      5419      5427
      5421      5422      5423      5421      5422      5424      5422      5424      5425
      5422      5424      5426      5422      5424      5436      5423      5422      5424
      5424      5436      5437      5424      5436      5438      5424      5436      5439
      5425      5424      5426      5425      5424      5436      5426      5424      5436
      5427      5430      5431      5428      5427      5429      5428      5427      5430
      5429      5427      5430      5430      5431      5432      5430      5431      5433
      5431      5433      5434      5431      5433      5435      5431      5433      5483
      5432      5431      5433      5433      5483      5484      5433      5483      5485
      5433      5483      5486      5434      5433      5435      5434      5433      5483
      5435      5433      5483      5436      5439      5440      5436      5439      5441
      5436      5439      5442      5437      5436      5438      5437      5436      5439
      5438      5436      5439      5439      5442      5443      5439      5442      5444
      5440      5439      5441      5440      5439      5442      5441      5439      5442
      5442      5444      5445      5442      5444      5446      5443      5442      5444
      5444      5446      5447      5444      5446      5448      5444      5446      5449
      5445      5444      5446      5446      5449      5450      5446      5449      5451
      5447      5446      5448      5447      5446      5449      5448      5446      5449
      5449      5451      5452      5449      5451      5453      5450      5449      5451
      5451      5453      5454      5451      5453      5455      5451      5453      5456
      5452      5451      5453      5453      5456      5457      5453      5456      5458
      5454      5453      5455      5454      5453      5456      5455      5453      5456
      5456      5458      5459      5456      5458      5460      5457      5456      5458
      5458      5460      5461      5458      5460      5462      5458      5460      5463
      5459      5458      5460      5460      5463      5464      5460      5463      5465
      5461      5460      5462      5461      5460      5463      5462      5460      5463
      5463      5465      5466      5463      5465      5467      5464      5463      5465
      5465      5467      5468      5465      5467      5469      5465      5467      5470
      5466      5465      5467      5467      5470      5471      5467      5470      5472
      5467      5470      5473      5468      5467      5469      5468      5467      5470
      5469      5467      5470      5470      5473      5474      5470      5473      5475
      5470      5473      5476      5471      5470      5472      5471      5470      5473
      5472      5470      5473      5473      5476      5477      5473      5476      5478
      5473      5476      5479      5474      5473      5475      5474      5473      5476
      5475      5473      5476      5476      5479      5480      5476      5479      5481
      5476      5479      5482      5477      5476      5478      5477      5476      5479
      5478      5476      5479      5480      5479      5481      5480      5479      5482
      5481      5479      5482      5483      5486      5487      5483      5486      5488
      5483      5486      5489      5484      5483      5485      5484      5483      5486
      5485      5483      5486      5486      5489      5490      5486      5489      5491
      5486      5489      5492      5487      5486      5488      5487      5486      5489
      5488      5486      5489      5489      5492      5493      5489      5492      5494
      5489      5492      5495      5490      5489      5491      5490      5489      5492
      5491      5489      5492      5492      5495      5496      5492      5495      5497
      5492      5495      5498      5493      5492      5494      5493      5492      5495
      5494      5492      5495      5495      5498      5499      5495      5498      5500
      5495      5498      5501      5496      5495      5497      5496      5495      5498
      5497      5495      5498      5498      5501      5502      5498      5501      5503
      5498      5501      5504      5499      5498      5500      5499      5498      5501
      5500      5498      5501      5501      5504      5505      5501      5504      5506
      5501      5504      5507      5502      5501      5503      5502      5501      5504
      5503      5501      5504      5504      5507      5508      5504      5507      5509
      5504      5507      5510      5505      5504      5506      5505      5504      5507
      5506      5504      5507      5507      5510      5511      5507      5510      5512
      5507      5510      5513      5508      5507      5509      5508      5507      5510
      5509      5507      5510      5510      5513      5514      5510      5513      5515
      5510      5513      5516      5511      5510      5512      5511      5510      5513
      5512      5510      5513      5513      5516      5517      5513      5516      5518
      5513      5516      5519      5514      5513      5515      5514      5513      5516
      5515      5513      5516      5516      5519      5520      5516      5519      5521
      5516      5519      5522      5517      5516      5518      5517      5516      5519
      5518      5516      5519      5519      5522      5523      5519      5522      5524
      5519      5522      5525      5520      5519      5521      5520      5519      5522
      5521      5519      5522      5522      5525      5526      5522      5525      5527
      5522      5525      5528      5523      5522      5524      5523      5522      5525
      5524      5522      5525      5525      5528      5529      5525      5528      5530
      5525      5528      5531      5526      5525      5527      5526      5525      5528
      5527      5525      5528      5529      5528      5530      5529      5528      5531
      5530      5528      5531      5532      5533      5534      5532      5533      5535
      5532      5533      5548      5532      5536      5537      5532      5536      5538
      5532      5536      5539      5532      5540      5541      5532      5540      5542
      5532      5540      5543      5532      5544      5545      5532      5544      5546
      5532      5544      5547      5533      5532      5536      5533      5532      5540
      5533      5532      5544      5533      5548      5549      5533      5548      5550
      5533      5548      5554      5534      5533      5535      5534      5533      5548
      5535      5533      5548      5536      5532      5540      5536      5532      5544
      5537      5536      5538      5537      5536      5539      5538      5536      5539
      5540      5532      5544      5541      5540      5542      5541      5540      5543
      5542      5540      5543      5545      5544      5546      5545      5544      5547
      5546      5544      5547      5548      5554      5551      5549      5548      5550
      5549      5548      5554      5550      5548      5554      5551      5555      5556
      5552      5551      5553      5552      5551      5554      5552      5551      5555
      5553      5551      5554      5553      5551      5555      5554      5551      5555
      5555      5556      5557      5555      5556      5558      5555      5556      5559
      5556      5559      5560      5556      5559      5561      5556      5559      5567
      5557      5556      5558      5557      5556      5559      5558      5556      5559
      5559      5561      5562      5559      5567      5568      5559      5567      5569
      5559      5567      5570      5560      5559      5561      5560      5559      5567
      5561      5559      5567      5561      5562      5563      5561      5562      5564
      5562      5564      5565      5562      5564      5566      5562      5564      5576
      5563      5562      5564      5564      5576      5577      5564      5576      5578
      5564      5576      5579      5565      5564      5566      5565      5564      5576
      5566      5564      5576      5567      5570      5571      5568      5567      5569
      5568      5567      5570      5569      5567      5570      5570      5571      5572
      5570      5571      5573      5571      5573      5574      5571      5573      5575
      5571      5573      5623      5572      5571      5573      5573      5623      5624
      5573      5623      5625      5573      5623      5626      5574      5573      5575
      5574      5573      5623      5575      5573      5623      5576      5579      5580
      5576      5579      5581      5576      5579      5582      5577      5576      5578
      5577      5576      5579      5578      5576      5579      5579      5582      5583
      5579      5582      5584      5579      5582      5585      5580      5579      5581
      5580      5579      5582      5581      5579      5582      5582      5585      5586
      5582      5585      5587      5582      5585      5588      5583      5582      5584
      5583      5582      5585      5584      5582      5585      5585      5588      5589
      5585      5588      5590      5585      5588      5591      5586      5585      5587
      5586      5585      5588      5587      5585      5588      5588      5591      5592
      5588      5591      5593      5588      5591      5594      5589      5588      5590
      5589      5588      5591      5590      5588      5591      5591      5594      5595
      5591      5594      5596      5592      5591      5593      5592      5591      5594
      5593      5591      5594      5594      5596      5597      5594      5596      5598
      5595      5594      5596      5596      5598      5599      5596      5598      5600
      5596      5598      5601      5597      5596      5598      5598      5601      5602
      5598      5601      5603      5598      5601      5604      5599      5598      5600
      5599      5598      5601      5600      5598      5601      5601      5604      5605
      5601      5604      5606      5601      5604      5607      5602      5601      5603
      5602      5601      5604      5603      5601      5604      5604      5607      5608
      5604      5607      5609      5604      5607      5610      5605      5604      5606
      5605      5604      5607      5606      5604      5607      5607      5610      5611
      5607      5610      5612      5607      5610      5613      5608      5607      5609
      5608      5607      5610      5609      5607      5610      5610      5613      5614
      5610      5613      5615      5610      5613      5616      5611      5610      5612
      5611      5610      5613      5612      5610      5613      5613      5616      5617
      5613      5616      5618      5613      5616      5619      5614      5613      5615
      5614      5613      5616      5615      5613      5616      5616      5619      5620
      5616      5619      5621      5616      5619      5622      5617      5616      5618
      5617      5616      5619      5618      5616      5619      5620      5619      5621
      5620      5619      5622      5621      5619      5622      5623      5626      5627
      5623      5626      5628      5623      5626      5629      5624      5623      5625
      5624      5623      5626      5625      5623      5626      5626      5629      5630
      5626      5629      5631      5626      5629      5632      5627      5626      5628
      5627      5626      5629      5628      5626      5629      5629      5632      5633
      5629      5632      5634      5629      5632      5635      5630      5629      5631
      5630      5629      5632      5631      5629      5632      5632      5635      5636
      5632      5635      5637      5632      5635      5638      5633      5632      5634
      5633      5632      5635      5634      5632      5635      5635      5638      5639
      5635      5638      5640      5635      5638      5641      5636      5635      5637
      5636      5635      5638      5637      5635      5638      5638      5641      5642
      5638      5641      5643      5638      5641      5644      5639      5638      5640
      5639      5638      5641      5640      5638      5641      5641      5644      5645
      5641      5644      5646      5641      5644      5647      5642      5641      5643
      5642      5641      5644      5643      5641      5644      5644      5647      5648
      5644      5647      5649      5644      5647      5650      5645      5644      5646
      5645      5644      5647      5646      5644      5647      5647      5650      5651
      5647      5650      5652      5647      5650      5653      5648      5647      5649
      5648      5647      5650      5649      5647      5650      5650      5653      5654
      5650      5653      5655      5650      5653      5656      5651      5650      5652
      5651      5650      5653      5652      5650      5653      5653      5656      5657
      5653      5656      5658      5653      5656      5659      5654      5653      5655
      5654      5653      5656      5655      5653      5656      5656      5659      5660
      5656      5659      5661      5656      5659      5662      5657      5656      5658
      5657      5656      5659      5658      5656      5659      5659      5662      5663
      5659      5662      5664      5659      5662      5665      5660      5659      5661
      5660      5659      5662      5661      5659      5662      5663      5662      5664
      5663      5662      5665      5664      5662      5665      5666      5668      5669
      5666      5670      5671      5666      5670      5672      5666      5670      5673
      5666      5712      5709      5666      5712      5713      5666      5712      5714
      5667      5666      5668      5667      5666      5670      5667      5666      5712
      5668      5666      5670      5668      5666      5712      5670      5666      5712
      5670      5673      5674      5670      5673      5704      5671      5670      5672
      5671      5670      5673      5672      5670      5673      5673      5674      5675
      5673      5674      5676      5673      5704      5702      5673      5704      5705
      5673      5704      5709      5674      5673      5704      5674      5676      5677
      5674      5676      5678      5674      5676      5679      5675      5674      5676
      5676      5679      5680      5676      5679      5681      5676      5679      5702
      5677      5676      5678      5677      5676      5679      5678      5676      5679
      5679      5681      5682      5679      5681      5683      5679      5681      5691
      5679      5702      5699      5679      5702      5703      5679      5702      5704
      5680      5679      5681      5680      5679      5702      5681      5679      5702
      5681      5683      5684      5681      5683      5685      5681      5683      5686
      5681      5691      5689      5681      5691      5692      5681      5691      5696
      5682      5681      5683      5682      5681      5691      5683      5681      5691
      5683      5686      5687      5683      5686      5688      5683      5686      5689
      5684      5683      5685      5684      5683      5686      5685      5683      5686
      5686      5689      5690      5686      5689      5691      5686      5689      5715
      5687      5686      5688      5687      5686      5689      5688      5686      5689
      5689      5691      5692      5689      5691      5696      5689      5715      5716
      5689      5715      5717      5689      5715      5721      5690      5689      5691
      5690      5689      5715      5691      5689      5715      5691      5692      5693
      5691      5692      5694      5691      5692      5695      5691      5696      5697
      5691      5696      5698      5691      5696      5699      5692      5691      5696
      5693      5692      5694      5693      5692      5695      5694      5692      5695
      5696      5699      5700      5696      5699      5701      5696      5699      5702
      5697      5696      5698      5697      5696      5699      5698      5696      5699
      5699      5702      5703      5699      5702      5704      5700      5699      5701
      5700      5699      5702      5701      5699      5702      5702      5704      5705
      5702      5704      5709      5703      5702      5704      5704      5705      5706
      5704      5705      5707      5704      5705      5708      5704      5709      5710
      5704      5709      5711      5704      5709      5712      5705      5704      5709
      5706      5705      5707      5706      5705      5708      5707      5705      5708
      5709      5712      5713      5709      5712      5714      5710      5709      5711
      5710      5709      5712      5711      5709      5712      5713      5712      5714
      5715      5717      5718      5715      5717      5719      5715      5717      5720
      5715      5721      5722      5715      5721      5723      5715      5721      5724
      5716      5715      5717      5716      5715      5721      5717      5715      5721
      5718      5717      5719      5718      5717      5720      5719      5717      5720
      5721      5724      5725      5721      5724      5726      5721      5724      5727
      5722      5721      5723      5722      5721      5724      5723      5721      5724
      5724      5727      5728      5724      5727      5729      5724      5727      5730
      5725      5724      5726      5725      5724      5727      5726      5724      5727
      5727      5730      5731      5727      5730      5732      5727      5730      5736
      5728      5727      5729      5728      5727      5730      5729      5727      5730
      5730      5732      5733      5730      5732      5734      5730      5732      5735
      5730      5736      5737      5730      5736      5738      5730      5736      5739
      5731      5730      5732      5731      5730      5736      5732      5730      5736
      5733      5732      5734      5733      5732      5735      5734      5732      5735
      5737      5736      5738      5737      5736      5739      5738      5736      5739
      5740      5742      5743      5740      5744      5745      5740      5744      5746
      5740      5744      5747      5740      5786      5783      5740      5786      5787
      5740      5786      5788      5741      5740      5742      5741      5740      5744
      5741      5740      5786      5742      5740      5744      5742      5740      5786
      5744      5740      5786      5744      5747      5748      5744      5747      5778
      5745      5744      5746      5745      5744      5747      5746      5744      5747
      5747      5748      5749      5747      5748      5750      5747      5778      5776
      5747      5778      5779      5747      5778      5783      5748      5747      5778
      5748      5750      5751      5748      5750      5752      5748      5750      5753
      5749      5748      5750      5750      5753      5754      5750      5753      5755
      5750      5753      5776      5751      5750      5752      5751      5750      5753
      5752      5750      5753      5753      5755      5756      5753      5755      5757
      5753      5755      5765      5753      5776      5773      5753      5776      5777
      5753      5776      5778      5754      5753      5755      5754      5753      5776
      5755      5753      5776      5755      5757      5758      5755      5757      5759
      5755      5757      5760      5755      5765      5763      5755      5765      5766
      5755      5765      5770      5756      5755      5757      5756      5755      5765
      5757      5755      5765      5757      5760      5761      5757      5760      5762
      5757      5760      5763      5758      5757      5759      5758      5757      5760
      5759      5757      5760      5760      5763      5764      5760      5763      5765
      5760      5763      5789      5761      5760      5762      5761      5760      5763
      5762      5760      5763      5763      5765      5766      5763      5765      5770
      5763      5789      5790      5763      5789      5791      5763      5789      5795
      5764      5763      5765      5764      5763      5789      5765      5763      5789
      5765      5766      5767      5765      5766      5768      5765      5766      5769
      5765      5770      5771      5765      5770      5772      5765      5770      5773
      5766      5765      5770      5767      5766      5768      5767      5766      5769
      5768      5766      5769      5770      5773      5774      5770      5773      5775
      5770      5773      5776      5771      5770      5772      5771      5770      5773
      5772      5770      5773      5773      5776      5777      5773      5776      5778
      5774      5773      5775      5774      5773      5776      5775      5773      5776
      5776      5778      5779      5776      5778      5783      5777      5776      5778
      5778      5779      5780      5778      5779      5781      5778      5779      5782
      5778      5783      5784      5778      5783      5785      5778      5783      5786
      5779      5778      5783      5780      5779      5781      5780      5779      5782
      5781      5779      5782      5783      5786      5787      5783      5786      5788
      5784      5783      5785      5784      5783      5786      5785      5783      5786
      5787      5786      5788      5789      5791      5792      5789      5791      5793
      5789      5791      5794      5789      5795      5796      5789      5795      5797
      5789      5795      5798      5790      5789      5791      5790      5789      5795
      5791      5789      5795      5792      5791      5793      5792      5791      5794
      5793      5791      5794      5795      5798      5799      5795      5798      5800
      5795      5798      5801      5796      5795      5797      5796      5795      5798
      5797      5795      5798      5798      5801      5802      5798      5801      5803
      5798      5801      5804      5799      5798      5800      5799      5798      5801
      5800      5798      5801      5801      5804      5805      5801      5804      5806
      5801      5804      5810      5802      5801      5803      5802      5801      5804
      5803      5801      5804      5804      5806      5807      5804      5806      5808
      5804      5806      5809      5804      5810      5811      5804      5810      5812
      5804      5810      5813      5805      5804      5806      5805      5804      5810
      5806      5804      5810      5807      5806      5808      5807      5806      5809
      5808      5806      5809      5811      5810      5812      5811      5810      5813
      5812      5810      5813      5814      5815      5816      5814      5815      5817
      5814      5815      5818      5814      5819      5820      5814      5819      5821
      5814      5819      5822      5814      5823      5824      5814      5823      5825
      5814      5823      5826      5814      5827      5828      5814      5827      5829
      5814      5827      5830      5815      5814      5819      5815      5814      5823
      5815      5814      5827      5816      5815      5817      5816      5815      5818
      5817      5815      5818      5819      5814      5823      5819      5814      5827
      5820      5819      5821      5820      5819      5822      5821      5819      5822
      5823      5814      5827      5824      5823      5825      5824      5823      5826
      5825      5823      5826      5827      5830      5831      5827      5830      5832
      5827      5830      5837      5828      5827      5829      5828      5827      5830
      5829      5827      5830      5830      5837      5833      5831      5830      5832
      5831      5830      5837      5832      5830      5837      5833      5836      5838
      5834      5833      5835      5834      5833      5836      5834      5833      5837
      5835      5833      5836      5835      5833      5837      5836      5833      5837
      5836      5838      5839      5836      5838      5840      5836      5838      5843
      5838      5843      5841      5838      5843      5844      5838      5843      5845
      5839      5838      5840      5839      5838      5843      5840      5838      5843
      5841      5843      5844      5841      5843      5845      5841      5893      5894
      5841      5893      5895      5842      5841      5843      5842      5841      5893
      5843      5841      5893      5843      5845      5846      5843      5845      5847
      5843      5845      5849      5844      5843      5845      5845      5847      5848
      5845      5849      5850      5845      5849      5851      5846      5845      5847
      5846      5845      5849      5847      5845      5849      5849      5851      5852
      5849      5851      5853      5850      5849      5851      5851      5853      5854
      5851      5853      5855      5851      5853      5856      5852      5851      5853
      5853      5856      5857      5853      5856      5858      5853      5856      5859
      5854      5853      5855      5854      5853      5856      5855      5853      5856
      5856      5859      5860      5856      5859      5861      5856      5859      5862
      5857      5856      5858      5857      5856      5859      5858      5856      5859
      5859      5862      5863      5859      5862      5864      5859      5862      5865
      5860      5859      5861      5860      5859      5862      5861      5859      5862
      5862      5865      5866      5862      5865      5867      5862      5865      5868
      5863      5862      5864      5863      5862      5865      5864      5862      5865
      5865      5868      5869      5865      5868      5870      5865      5868      5871
      5866      5865      5867      5866      5865      5868      5867      5865      5868
      5868      5871      5872      5868      5871      5873      5868      5871      5874
      5869      5868      5870      5869      5868      5871      5870      5868      5871
      5871      5874      5875      5871      5874      5876      5871      5874      5877
      5872      5871      5873      5872      5871      5874      5873      5871      5874
      5874      5877      5878      5874      5877      5879      5874      5877      5880
      5875      5874      5876      5875      5874      5877      5876      5874      5877
      5877      5880      5881      5877      5880      5882      5877      5880      5883
      5878      5877      5879      5878      5877      5880      5879      5877      5880
      5880      5883      5884      5880      5883      5885      5880      5883      5886
      5881      5880      5882      5881      5880      5883      5882      5880      5883
      5883      5886      5887      5883      5886      5888      5883      5886      5889
      5884      5883      5885      5884      5883      5886      5885      5883      5886
      5886      5889      5890      5886      5889      5891      5886      5889      5892
      5887      5886      5888      5887      5886      5889      5888      5886      5889
      5890      5889      5891      5890      5889      5892      5891      5889      5892
      5893      5895      5896      5893      5895      5897      5893      5895      5898
      5894      5893      5895      5895      5898      5899      5895      5898      5900
      5895      5898      5901      5896      5895      5897      5896      5895      5898
      5897      5895      5898      5898      5901      5902      5898      5901      5903
      5898      5901      5904      5899      5898      5900      5899      5898      5901
      5900      5898      5901      5901      5904      5905      5901      5904      5906
      5901      5904      5907      5902      5901      5903      5902      5901      5904
      5903      5901      5904      5904      5907      5908      5904      5907      5909
      5904      5907      5910      5905      5904      5906      5905      5904      5907
      5906      5904      5907      5907      5910      5911      5907      5910      5912
      5907      5910      5913      5908      5907      5909      5908      5907      5910
      5909      5907      5910      5910      5913      5914      5910      5913      5915
      5910      5913      5916      5911      5910      5912      5911      5910      5913
      5912      5910      5913      5913      5916      5917      5913      5916      5918
      5914      5913      5915      5914      5913      5916      5915      5913      5916
      5916      5918      5919      5916      5918      5920      5917      5916      5918
      5918      5920      5921      5918      5920      5922      5918      5920      5923
      5919      5918      5920      5920      5923      5924      5920      5923      5925
      5920      5923      5926      5921      5920      5922      5921      5920      5923
      5922      5920      5923      5923      5926      5927      5923      5926      5928
      5923      5926      5929      5924      5923      5925      5924      5923      5926
      5925      5923      5926      5926      5929      5930      5926      5929      5931
      5926      5929      5932      5927      5926      5928      5927      5926      5929
      5928      5926      5929      5929      5932      5933      5929      5932      5934
      5929      5932      5935      5930      5929      5931      5930      5929      5932
      5931      5929      5932      5932      5935      5936      5932      5935      5937
      5932      5935      5938      5933      5932      5934      5933      5932      5935
      5934      5932      5935      5935      5938      5939      5935      5938      5940
      5935      5938      5941      5936      5935      5937      5936      5935      5938
      5937      5935      5938      5938      5941      5942      5938      5941      5943
      5938      5941      5944      5939      5938      5940      5939      5938      5941
      5940      5938      5941      5942      5941      5943      5942      5941      5944
      5943      5941      5944      5945      5946      5947      5945      5946      5948
      5945      5946      5961      5945      5949      5950      5945      5949      5951
      5945      5949      5952      5945      5953      5954      5945      5953      5955
      5945      5953      5956      5945      5957      5958      5945      5957      5959
      5945      5957      5960      5946      5945      5949      5946      5945      5953
      5946      5945      5957      5946      5961      5962      5946      5961      5963
      5946      5961      5967      5947      5946      5948      5947      5946      5961
      5948      5946      5961      5949      5945      5953      5949      5945      5957
      5950      5949      5951      5950      5949      5952      5951      5949      5952
      5953      5945      5957      5954      5953      5955      5954      5953      5956
      5955      5953      5956      5958      5957      5959      5958      5957      5960
      5959      5957      5960      5961      5967      5964      5962      5961      5963
      5962      5961      5967      5963      5961      5967      5964      5968      5969
      5965      5964      5966      5965      5964      5967      5965      5964      5968
      5966      5964      5967      5966      5964      5968      5967      5964      5968
      5968      5969      5970      5968      5969      5971      5968      5969      5972
      5969      5972      5973      5969      5972      5974      5969      5972      5980
      5970      5969      5971      5970      5969      5972      5971      5969      5972
      5972      5974      5975      5972      5980      5981      5972      5980      5982
      5972      5980      5983      5973      5972      5974      5973      5972      5980
      5974      5972      5980      5974      5975      5976      5974      5975      5977
      5975      5977      5978      5975      5977      5979      5975      5977      5989
      5976      5975      5977      5977      5989      5990      5977      5989      5991
      5977      5989      5992      5978      5977      5979      5978      5977      5989
      5979      5977      5989      5980      5983      5984      5981      5980      5982
      5981      5980      5983      5982      5980      5983      5983      5984      5985
      5983      5984      5986      5984      5986      5987      5984      5986      5988
      5984      5986      6036      5985      5984      5986      5986      6036      6037
      5986      6036      6038      5986      6036      6039      5987      5986      5988
      5987      5986      6036      5988      5986      6036      5989      5992      5993
      5989      5992      5994      5989      5992      5995      5990      5989      5991
      5990      5989      5992      5991      5989      5992      5992      5995      5996
      5992      5995      5997      5993      5992      5994      5993      5992      5995
      5994      5992      5995      5995      5997      5998      5995      5997      5999
      5996      5995      5997      5997      5999      6000      5997      5999      6001
      5997      5999      6002      5998      5997      5999      5999      6002      6003
      5999      6002      6004      6000      5999      6001      6000      5999      6002
      6001      5999      6002      6002      6004      6005      6002      6004      6006
      6003      6002      6004      6004      6006      6007      6004      6006      6008
      6004      6006      6009      6005      6004      6006      6006      6009      6010
      6006      6009      6011      6007      6006      6008      6007      6006      6009
      6008      6006      6009      6009      6011      6012      6009      6011      6013
      6010      6009      6011      6011      6013      6014      6011      6013      6015
      6011      6013      6016      6012      6011      6013      6013      6016      6017
      6013      6016      6018      6014      6013      6015      6014      6013      6016
      6015      6013      6016      6016      6018      6019      6016      6018      6020
      6017      6016      6018      6018      6020      6021      6018      6020      6022
      6018      6020      6023      6019      6018      6020      6020      6023      6024
      6020      6023      6025      6020      6023      6026      6021      6020      6022
      6021      6020      6023      6022      6020      6023      6023      6026      6027
      6023      6026      6028      6023      6026      6029      6024      6023      6025
      6024      6023      6026      6025      6023      6026      6026      6029      6030
      6026      6029      6031      6026      6029      6032      6027      6026      6028
      6027      6026      6029      6028      6026      6029      6029      6032      6033
      6029      6032      6034      6029      6032      6035      6030      6029      6031
      6030      6029      6032      6031      6029      6032      6033      6032      6034
      6033      6032      6035      6034      6032      6035      6036      6039      6040
      6036      6039      6041      6036      6039      6042      6037      6036      6038
      6037      6036      6039      6038      6036      6039      6039      6042      6043
      6039      6042      6044      6039      6042      6045      6040      6039      6041
      6040      6039      6042      6041      6039      6042      6042      6045      6046
      6042      6045      6047      6042      6045      6048      6043      6042      6044
      6043      6042      6045      6044      6042      6045      6045      6048      6049
      6045      6048      6050      6045      6048      6051      6046      6045      6047
      6046      6045      6048      6047      6045      6048      6048      6051      6052
      6048      6051      6053      6048      6051      6054      6049      6048      6050
      6049      6048      6051      6050      6048      6051      6051      6054      6055
      6051      6054      6056      6051      6054      6057      6052      6051      6053
      6052      6051      6054      6053      6051      6054      6054      6057      6058
      6054      6057      6059      6054      6057      6060      6055      6054      6056
      6055      6054      6057      6056      6054      6057      6057      6060      6061
      6057      6060      6062      6057      6060      6063      6058      6057      6059
      6058      6057      6060      6059      6057      6060      6060      6063      6064
      6060      6063      6065      6060      6063      6066      6061      6060      6062
      6061      6060      6063      6062      6060      6063      6063      6066      6067
      6063      6066      6068      6063      6066      6069      6064      6063      6065
      6064      6063      6066      6065      6063      6066      6066      6069      6070
      6066      6069      6071      6066      6069      6072      6067      6066      6068
      6067      6066      6069      6068      6066      6069      6069      6072      6073
      6069      6072      6074      6069      6072      6075      6070      6069      6071
      6070      6069      6072      6071      6069      6072      6072      6075      6076
      6072      6075      6077      6072      6075      6078      6073      6072      6074
      6073      6072      6075      6074      6072      6075      6075      6078      6079
      6075      6078      6080      6075      6078      6081      6076      6075      6077
      6076      6075      6078      6077      6075      6078      6078      6081      6082
      6078      6081      6083      6078      6081      6084      6079      6078      6080
      6079      6078      6081      6080      6078      6081      6082      6081      6083
      6082      6081      6084      6083      6081      6084      6085      6086      6087
      6085      6086      6088      6085      6086      6089      6085      6090      6091
      6085      6090      6092      6085      6090      6093      6085      6094      6095
      6085      6094      6096      6085      6094      6097      6085      6098      6099
      6085      6098      6100      6085      6098      6101      6086      6085      6090
      6086      6085      6094      6086      6085      6098      6087      6086      6088
      6087      6086      6089      6088      6086      6089      6090      6085      6094
      6090      6085      6098      6091      6090      6092      6091      6090      6093
      6092      6090      6093      6094      6085      6098      6095      6094      6096
      6095      6094      6097      6096      6094      6097      6098      6101      6102
      6098      6101      6103      6098      6101      6108      6099      6098      6100
      6099      6098      6101      6100      6098      6101      6101      6108      6104
      6102      6101      6103      6102      6101      6108      6103      6101      6108
      6104      6107      6109      6105      6104      6106      6105      6104      6107
      6105      6104      6108      6106      6104      6107      6106      6104      6108
      6107      6104      6108      6107      6109      6110      6107      6109      6111
      6107      6109      6114      6109      6114      6112      6109      6114      6115
      6109      6114      6116      6110      6109      6111      6110      6109      6114
      6111      6109      6114      6112      6114      6115      6112      6114      6116
      6112      6164      6165      6112      6164      6166      6113      6112      6114
      6113      6112      6164      6114      6112      6164      6114      6116      6117
      6114      6116      6118      6114      6116      6120      6115      6114      6116
      6116      6118      6119      6116      6120      6121      6116      6120      6122
      6117      6116      6118      6117      6116      6120      6118      6116      6120
      6120      6122      6123      6120      6122      6124      6121      6120      6122
      6122      6124      6125      6122      6124      6126      6122      6124      6127
      6123      6122      6124      6124      6127      6128      6124      6127      6129
      6124      6127      6130      6125      6124      6126      6125      6124      6127
      6126      6124      6127      6127      6130      6131      6127      6130      6132
      6127      6130      6133      6128      6127      6129      6128      6127      6130
      6129      6127      6130      6130      6133      6134      6130      6133      6135
      6130      6133      6136      6131      6130      6132      6131      6130      6133
      6132      6130      6133      6133      6136      6137      6133      6136      6138
      6133      6136      6139      6134      6133      6135      6134      6133      6136
      6135      6133      6136      6136      6139      6140      6136      6139      6141
      6136      6139      6142      6137      6136      6138      6137      6136      6139
      6138      6136      6139      6139      6142      6143      6139      6142      6144
      6139      6142      6145      6140      6139      6141      6140      6139      6142
      6141      6139      6142      6142      6145      6146      6142      6145      6147
      6142      6145      6148      6143      6142      6144      6143      6142      6145
      6144      6142      6145      6145      6148      6149      6145      6148      6150
      6145      6148      6151      6146      6145      6147      6146      6145      6148
      6147      6145      6148      6148      6151      6152      6148      6151      6153
      6148      6151      6154      6149      6148      6150      6149      6148      6151
      6150      6148      6151      6151      6154      6155      6151      6154      6156
      6151      6154      6157      6152      6151      6153      6152      6151      6154
      6153      6151      6154      6154      6157      6158      6154      6157      6159
      6154      6157      6160      6155      6154      6156      6155      6154      6157
      6156      6154      6157      6157      6160      6161      6157      6160      6162
      6157      6160      6163      6158      6157      6159      6158      6157      6160
      6159      6157      6160      6161      6160      6162      6161      6160      6163
      6162      6160      6163      6164      6166      6167      6164      6166      6168
      6164      6166      6169      6165      6164      6166      6166      6169      6170
      6166      6169      6171      6166      6169      6172      6167      6166      6168
      6167      6166      6169      6168      6166      6169      6169      6172      6173
      6169      6172      6174      6169      6172      6175      6170      6169      6171
      6170      6169      6172      6171      6169      6172      6172      6175      6176
      6172      6175      6177      6172      6175      6178      6173      6172      6174
      6173      6172      6175      6174      6172      6175      6175      6178      6179
      6175      6178      6180      6175      6178      6181      6176      6175      6177
      6176      6175      6178      6177      6175      6178      6178      6181      6182
      6178      6181      6183      6178      6181      6184      6179      6178      6180
      6179      6178      6181      6180      6178      6181      6181      6184      6185
      6181      6184      6186      6181      6184      6187      6182      6181      6183
      6182      6181      6184      6183      6181      6184      6184      6187      6188
      6184      6187      6189      6185      6184      6186      6185      6184      6187
      6186      6184      6187      6187      6189      6190      6187      6189      6191
      6188      6187      6189      6189      6191      6192      6189      6191      6193
      6189      6191      6194      6190      6189      6191      6191      6194      6195
      6191      6194      6196      6191      6194      6197      6192      6191      6193
      6192      6191      6194      6193      6191      6194      6194      6197      6198
      6194      6197      6199      6194      6197      6200      6195      6194      6196
      6195      6194      6197      6196      6194      6197      6197      6200      6201
      6197      6200      6202      6197      6200      6203      6198      6197      6199
      6198      6197      6200      6199      6197      6200      6200      6203      6204
      6200      6203      6205      6200      6203      6206      6201      6200      6202
      6201      6200      6203      6202      6200      6203      6203      6206      6207
      6203      6206      6208      6203      6206      6209      6204      6203      6205
      6204      6203      6206      6205      6203      6206      6206      6209      6210
      6206      6209      6211      6206      6209      6212      6207      6206      6208
      6207      6206      6209      6208      6206      6209      6209      6212      6213
      6209      6212      6214      6209      6212      6215      6210      6209      6211
      6210      6209      6212      6211      6209      6212      6213      6212      6214
      6213      6212      6215      6214      6212      6215      6216      6220      6221
      6216      6220      6222      6216      6220      6223      6217      6216      6218
      6217      6216      6219      6217      6216      6220      6218      6216      6219
      6218      6216      6220      6219      6216      6220      6220      6223      6224
      6220      6223      6225      6220      6223      6229      6221      6220      6222
      6221      6220      6223      6222      6220      6223      6223      6229      6226
      6224      6223      6225      6224      6223      6229      6225      6223      6229
      6226      6230      6231      6227      6226      6228      6227      6226      6229
      6227      6226      6230      6228      6226      6229      6228      6226      6230
      6229      6226      6230      6230      6231      6232      6230      6231      6233
      6230      6231      6234      6231      6234      6235      6231      6234      6236
      6231      6234      6242      6232      6231      6233      6232      6231      6234
      6233      6231      6234      6234      6236      6237      6234      6242      6243
      6234      6242      6244      6234      6242      6245      6235      6234      6236
      6235      6234      6242      6236      6234      6242      6236      6237      6238
      6236      6237      6239      6237      6239      6240      6237      6239      6241
      6237      6239      6251      6238      6237      6239      6239      6251      6252
      6239      6251      6253      6239      6251      6254      6240      6239      6241
      6240      6239      6251      6241      6239      6251      6242      6245      6246
      6243      6242      6244      6243      6242      6245      6244      6242      6245
      6245      6246      6247      6245      6246      6248      6246      6248      6249
      6246      6248      6250      6246      6248      6298      6247      6246      6248
      6248      6298      6299      6248      6298      6300      6248      6298      6301
      6249      6248      6250      6249      6248      6298      6250      6248      6298
      6251      6254      6255      6251      6254      6256      6251      6254      6257
      6252      6251      6253      6252      6251      6254      6253      6251      6254
      6254      6257      6258      6254      6257      6259      6255      6254      6256
      6255      6254      6257      6256      6254      6257      6257      6259      6260
      6257      6259      6261      6258      6257      6259      6259      6261      6262
      6259      6261      6263      6259      6261      6264      6260      6259      6261
      6261      6264      6265      6261      6264      6266      6262      6261      6263
      6262      6261      6264      6263      6261      6264      6264      6266      6267
      6264      6266      6268      6265      6264      6266      6266      6268      6269
      6266      6268      6270      6266      6268      6271      6267      6266      6268
      6268      6271      6272      6268      6271      6273      6269      6268      6270
      6269      6268      6271      6270      6268      6271      6271      6273      6274
      6271      6273      6275      6272      6271      6273      6273      6275      6276
      6273      6275      6277      6273      6275      6278      6274      6273      6275
      6275      6278      6279      6275      6278      6280      6276      6275      6277
      6276      6275      6278      6277      6275      6278      6278      6280      6281
      6278      6280      6282      6279      6278      6280      6280      6282      6283
      6280      6282      6284      6280      6282      6285      6281      6280      6282
      6282      6285      6286      6282      6285      6287      6282      6285      6288
      6283      6282      6284      6283      6282      6285      6284      6282      6285
      6285      6288      6289      6285      6288      6290      6285      6288      6291
      6286      6285      6287      6286      6285      6288      6287      6285      6288
      6288      6291      6292      6288      6291      6293      6288      6291      6294
      6289      6288      6290      6289      6288      6291      6290      6288      6291
      6291      6294      6295      6291      6294      6296      6291      6294      6297
      6292      6291      6293      6292      6291      6294      6293      6291      6294
      6295      6294      6296      6295      6294      6297      6296      6294      6297
      6298      6301      6302      6298      6301      6303      6298      6301      6304
      6299      6298      6300      6299      6298      6301      6300      6298      6301
      6301      6304      6305      6301      6304      6306      6301      6304      6307
      6302      6301      6303      6302      6301      6304      6303      6301      6304
      6304      6307      6308      6304      6307      6309      6304      6307      6310
      6305      6304      6306      6305      6304      6307      6306      6304      6307
      6307      6310      6311      6307      6310      6312      6307      6310      6313
      6308      6307      6309      6308      6307      6310      6309      6307      6310
      6310      6313      6314      6310      6313      6315      6310      6313      6316
      6311      6310      6312      6311      6310      6313      6312      6310      6313
      6313      6316      6317      6313      6316      6318      6313      6316      6319
      6314      6313      6315      6314      6313      6316      6315      6313      6316
      6316      6319      6320      6316      6319      6321      6316      6319      6322
      6317      6316      6318      6317      6316      6319      6318      6316      6319
      6319      6322      6323      6319      6322      6324      6319      6322      6325
      6320      6319      6321      6320      6319      6322      6321      6319      6322
      6322      6325      6326      6322      6325      6327      6322      6325      6328
      6323      6322      6324      6323      6322      6325      6324      6322      6325
      6325      6328      6329      6325      6328      6330      6325      6328      6331
      6326      6325      6327      6326      6325      6328      6327      6325      6328
      6328      6331      6332      6328      6331      6333      6328      6331      6334
      6329      6328      6330      6329      6328      6331      6330      6328      6331
      6331      6334      6335      6331      6334      6336      6331      6334      6337
      6332      6331      6333      6332      6331      6334      6333      6331      6334
      6334      6337      6338      6334      6337      6339      6334      6337      6340
      6335      6334      6336      6335      6334      6337      6336      6334      6337
      6337      6340      6341      6337      6340      6342      6337      6340      6343
      6338      6337      6339      6338      6337      6340      6339      6337      6340
      6340      6343      6344      6340      6343      6345      6340      6343      6346
      6341      6340      6342      6341      6340      6343      6342      6340      6343
      6344      6343      6345      6344      6343      6346      6345      6343      6346
      6347      6348      6349      6347      6348      6350      6347      6348      6351
      6347      6352      6353      6347      6352      6354      6347      6352      6355
      6347      6356      6357      6347      6356      6358      6347      6356      6359
      6347      6360      6361      6347      6360      6362      6347      6360      6363
      6348      6347      6352      6348      6347      6356      6348      6347      6360
      6349      6348      6350      6349      6348      6351      6350      6348      6351
      6352      6347      6356      6352      6347      6360      6353      6352      6354
      6353      6352      6355      6354      6352      6355      6356      6347      6360
      6357      6356      6358      6357      6356      6359      6358      6356      6359
      6360      6363      6364      6360      6363      6365      6360      6363      6370
      6361      6360      6362      6361      6360      6363      6362      6360      6363
      6363      6370      6366      6364      6363      6365      6364      6363      6370
      6365      6363      6370      6366      6369      6371      6367      6366      6368
      6367      6366      6369      6367      6366      6370      6368      6366      6369
      6368      6366      6370      6369      6366      6370      6369      6371      6372
      6369      6371      6373      6369      6371      6376      6371      6376      6374
      6371      6376      6377      6371      6376      6378      6372      6371      6373
      6372      6371      6376      6373      6371      6376      6374      6376      6377
      6374      6376      6378      6374      6426      6427      6374      6426      6428
      6375      6374      6376      6375      6374      6426      6376      6374      6426
      6376      6378      6379      6376      6378      6380      6376      6378      6382
      6377      6376      6378      6378      6380      6381      6378      6382      6383
      6378      6382      6384      6379      6378      6380      6379      6378      6382
      6380      6378      6382      6382      6384      6385      6382      6384      6386
      6383      6382      6384      6384      6386      6387      6384      6386      6388
      6384      6386      6389      6385      6384      6386      6386      6389      6390
      6386      6389      6391      6386      6389      6392      6387      6386      6388
      6387      6386      6389      6388      6386      6389      6389      6392      6393
      6389      6392      6394      6389      6392      6395      6390      6389      6391
      6390      6389      6392      6391      6389      6392      6392      6395      6396
      6392      6395      6397      6392      6395      6398      6393      6392      6394
      6393      6392      6395      6394      6392      6395      6395      6398      6399
      6395      6398      6400      6395      6398      6401      6396      6395      6397
      6396      6395      6398      6397      6395      6398      6398      6401      6402
      6398      6401      6403      6398      6401      6404      6399      6398      6400
      6399      6398      6401      6400      6398      6401      6401      6404      6405
      6401      6404      6406      6401      6404      6407      6402      6401      6403
      6402      6401      6404      6403      6401      6404      6404      6407      6408
      6404      6407      6409      6404      6407      6410      6405      6404      6406
      6405      6404      6407      6406      6404      6407      6407      6410      6411
      6407      6410      6412      6407      6410      6413      6408      6407      6409
      6408      6407      6410      6409      6407      6410      6410      6413      6414
      6410      6413      6415      6410      6413      6416      6411      6410      6412
      6411      6410      6413      6412      6410      6413      6413      6416      6417
      6413      6416      6418      6413      6416      6419      6414      6413      6415
      6414      6413      6416      6415      6413      6416      6416      6419      6420
      6416      6419      6421      6416      6419      6422      6417      6416      6418
      6417      6416      6419      6418      6416      6419      6419      6422      6423
      6419      6422      6424      6419      6422      6425      6420      6419      6421
      6420      6419      6422      6421      6419      6422      6423      6422      6424
      6423      6422      6425      6424      6422      6425      6426      6428      6429
      6426      6428      6430      6426      6428      6431      6427      6426      6428
      6428      6431      6432      6428      6431      6433      6428      6431      6434
      6429      6428      6430      6429      6428      6431      6430      6428      6431
      6431      6434      6435      6431      6434      6436      6431      6434      6437
      6432      6431      6433      6432      6431      6434      6433      6431      6434
      6434      6437      6438      6434      6437      6439      6434      6437      6440
      6435      6434      6436      6435      6434      6437      6436      6434      6437
      6437      6440      6441      6437      6440      6442      6437      6440      6443
      6438      6437      6439      6438      6437      6440      6439      6437      6440
      6440      6443      6444      6440      6443      6445      6440      6443      6446
      6441      6440      6442      6441      6440      6443      6442      6440      6443
      6443      6446      6447      6443      6446      6448      6443      6446      6449
      6444      6443      6445      6444      6443      6446      6445      6443      6446
      6446      6449      6450      6446      6449      6451      6447      6446      6448
      6447      6446      6449      6448      6446      6449      6449      6451      6452
      6449      6451      6453      6450      6449      6451      6451      6453      6454
      6451      6453      6455      6451      6453      6456      6452      6451      6453
      6453      6456      6457      6453      6456      6458      6453      6456      6459
      6454      6453      6455      6454      6453      6456      6455      6453      6456
      6456      6459      6460      6456      6459      6461      6456      6459      6462
      6457      6456      6458      6457      6456      6459      6458      6456      6459
      6459      6462      6463      6459      6462      6464      6459      6462      6465
      6460      6459      6461      6460      6459      6462      6461      6459      6462
      6462      6465      6466      6462      6465      6467      6462      6465      6468
      6463      6462      6464      6463      6462      6465      6464      6462      6465
      6465      6468      6469      6465      6468      6470      6465      6468      6471
      6466      6465      6467      6466      6465      6468      6467      6465      6468
      6468      6471      6472      6468      6471      6473      6468      6471      6474
      6469      6468      6470      6469      6468      6471      6470      6468      6471
      6471      6474      6475      6471      6474      6476      6471      6474      6477
      6472      6471      6473      6472      6471      6474      6473      6471      6474
      6475      6474      6476      6475      6474      6477      6476      6474      6477
      6478      6479      6480      6478      6479      6481      6478      6479      6482
      6478      6483      6484      6478      6483      6485      6478      6483      6486
      6478      6487      6488      6478      6487      6489      6478      6487      6490
      6478      6491      6492      6478      6491      6493      6478      6491      6494
      6479      6478      6483      6479      6478      6487      6479      6478      6491
      6480      6479      6481      6480      6479      6482      6481      6479      6482
      6483      6478      6487      6483      6478      6491      6484      6483      6485
      6484      6483      6486      6485      6483      6486      6487      6478      6491
      6488      6487      6489      6488      6487      6490      6489      6487      6490
      6491      6494      6495      6491      6494      6496      6491      6494      6501
      6492      6491      6493      6492      6491      6494      6493      6491      6494
      6494      6501      6497      6495      6494      6496      6495      6494      6501
      6496      6494      6501      6497      6500      6502      6498      6497      6499
      6498      6497      6500      6498      6497      6501      6499      6497      6500
      6499      6497      6501      6500      6497      6501      6500      6502      6503
      6500      6502      6504      6500      6502      6507      6502      6507      6505
      6502      6507      6508      6502      6507      6509      6503      6502      6504
      6503      6502      6507      6504      6502      6507      6505      6507      6508
      6505      6507      6509      6505      6557      6558      6505      6557      6559
      6506      6505      6507      6506      6505      6557      6507      6505      6557
      6507      6509      6510      6507      6509      6511      6507      6509      6513
      6508      6507      6509      6509      6511      6512      6509      6513      6514
      6509      6513      6515      6510      6509      6511      6510      6509      6513
      6511      6509      6513      6513      6515      6516      6513      6515      6517
      6514      6513      6515      6515      6517      6518      6515      6517      6519
      6515      6517      6520      6516      6515      6517      6517      6520      6521
      6517      6520      6522      6517      6520      6523      6518      6517      6519
      6518      6517      6520      6519      6517      6520      6520      6523      6524
      6520      6523      6525      6520      6523      6526      6521      6520      6522
      6521      6520      6523      6522      6520      6523      6523      6526      6527
      6523      6526      6528      6523      6526      6529      6524      6523      6525
      6524      6523      6526      6525      6523      6526      6526      6529      6530
      6526      6529      6531      6526      6529      6532      6527      6526      6528
      6527      6526      6529      6528      6526      6529      6529      6532      6533
      6529      6532      6534      6529      6532      6535      6530      6529      6531
      6530      6529      6532      6531      6529      6532      6532      6535      6536
      6532      6535      6537      6532      6535      6538      6533      6532      6534
      6533      6532      6535      6534      6532      6535      6535      6538      6539
      6535      6538      6540      6535      6538      6541      6536      6535      6537
      6536      6535      6538      6537      6535      6538      6538      6541      6542
      6538      6541      6543      6538      6541      6544      6539      6538      6540
      6539      6538      6541      6540      6538      6541      6541      6544      6545
      6541      6544      6546      6541      6544      6547      6542      6541      6543
      6542      6541      6544      6543      6541      6544      6544      6547      6548
      6544      6547      6549      6544      6547      6550      6545      6544      6546
      6545      6544      6547      6546      6544      6547      6547      6550      6551
      6547      6550      6552      6547      6550      6553      6548      6547      6549
      6548      6547      6550      6549      6547      6550      6550      6553      6554
      6550      6553      6555      6550      6553      6556      6551      6550      6552
      6551      6550      6553      6552      6550      6553      6554      6553      6555
      6554      6553      6556      6555      6553      6556      6557      6559      6560
      6557      6559      6561      6557      6559      6562      6558      6557      6559
      6559      6562      6563      6559      6562      6564      6559      6562      6565
      6560      6559      6561      6560      6559      6562      6561      6559      6562
      6562      6565      6566      6562      6565      6567      6562      6565      6568
      6563      6562      6564      6563      6562      6565      6564      6562      6565
      6565      6568      6569      6565      6568      6570      6565      6568      6571
      6566      6565      6567      6566      6565      6568      6567      6565      6568
      6568      6571      6572      6568      6571      6573      6568      6571      6574
      6569      6568      6570      6569      6568      6571      6570      6568      6571
      6571      6574      6575      6571      6574      6576      6571      6574      6577
      6572      6571      6573      6572      6571      6574      6573      6571      6574
      6574      6577      6578      6574      6577      6579      6574      6577      6580
      6575      6574      6576      6575      6574      6577      6576      6574      6577
      6577      6580      6581      6577      6580      6582      6578      6577      6579
      6578      6577      6580      6579      6577      6580      6580      6582      6583
      6580      6582      6584      6581      6580      6582      6582      6584      6585
      6582      6584      6586      6582      6584      6587      6583      6582      6584
      6584      6587      6588      6584      6587      6589      6584      6587      6590
      6585      6584      6586      6585      6584      6587      6586      6584      6587
      6587      6590      6591      6587      6590      6592      6587      6590      6593
      6588      6587      6589      6588      6587      6590      6589      6587      6590
      6590      6593      6594      6590      6593      6595      6590      6593      6596
      6591      6590      6592      6591      6590      6593      6592      6590      6593
      6593      6596      6597      6593      6596      6598      6593      6596      6599
      6594      6593      6595      6594      6593      6596      6595      6593      6596
      6596      6599      6600      6596      6599      6601      6596      6599      6602
      6597      6596      6598      6597      6596      6599      6598      6596      6599
      6599      6602      6603      6599      6602      6604      6599      6602      6605
      6600      6599      6601      6600      6599      6602      6601      6599      6602
      6602      6605      6606      6602      6605      6607      6602      6605      6608
      6603      6602      6604      6603      6602      6605      6604      6602      6605
      6606      6605      6607      6606      6605      6608      6607      6605      6608
      6609      6613      6614      6609      6613      6615      6609      6613      6616
      6610      6609      6611      6610      6609      6612      6610      6609      6613
      6611      6609      6612      6611      6609      6613      6612      6609      6613
      6613      6616      6617      6613      6616      6618      6613      6616      6622
      6614      6613      6615      6614      6613      6616      6615      6613      6616
      6616      6622      6619      6617      6616      6618      6617      6616      6622
      6618      6616      6622      6619      6623      6624      6620      6619      6621
      6620      6619      6622      6620      6619      6623      6621      6619      6622
      6621      6619      6623      6622      6619      6623      6623      6624      6625
      6623      6624      6626      6623      6624      6627      6624      6627      6628
      6624      6627      6629      6624      6627      6635      6625      6624      6626
      6625      6624      6627      6626      6624      6627      6627      6629      6630
      6627      6635      6636      6627      6635      6637      6627      6635      6638
      6628      6627      6629      6628      6627      6635      6629      6627      6635
      6629      6630      6631      6629      6630      6632      6630      6632      6633
      6630      6632      6634      6630      6632      6644      6631      6630      6632
      6632      6644      6645      6632      6644      6646      6632      6644      6647
      6633      6632      6634      6633      6632      6644      6634      6632      6644
      6635      6638      6639      6636      6635      6637      6636      6635      6638
      6637      6635      6638      6638      6639      6640      6638      6639      6641
      6639      6641      6642      6639      6641      6643      6639      6641      6691
      6640      6639      6641      6641      6691      6692      6641      6691      6693
      6641      6691      6694      6642      6641      6643      6642      6641      6691
      6643      6641      6691      6644      6647      6648      6644      6647      6649
      6644      6647      6650      6645      6644      6646      6645      6644      6647
      6646      6644      6647      6647      6650      6651      6647      6650      6652
      6647      6650      6653      6648      6647      6649      6648      6647      6650
      6649      6647      6650      6650      6653      6654      6650      6653      6655
      6650      6653      6656      6651      6650      6652      6651      6650      6653
      6652      6650      6653      6653      6656      6657      6653      6656      6658
      6653      6656      6659      6654      6653      6655      6654      6653      6656
      6655      6653      6656      6656      6659      6660      6656      6659      6661
      6656      6659      6662      6657      6656      6658      6657      6656      6659
      6658      6656      6659      6659      6662      6663      6659      6662      6664
      6660      6659      6661      6660      6659      6662      6661      6659      6662
      6662      6664      6665      6662      6664      6666      6663      6662      6664
      6664      6666      6667      6664      6666      6668      6664      6666      6669
      6665      6664      6666      6666      6669      6670      6666      6669      6671
      6666      6669      6672      6667      6666      6668      6667      6666      6669
      6668      6666      6669      6669      6672      6673      6669      6672      6674
      6669      6672      6675      6670      6669      6671      6670      6669      6672
      6671      6669      6672      6672      6675      6676      6672      6675      6677
      6672      6675      6678      6673      6672      6674      6673      6672      6675
      6674      6672      6675      6675      6678      6679      6675      6678      6680
      6675      6678      6681      6676      6675      6677      6676      6675      6678
      6677      6675      6678      6678      6681      6682      6678      6681      6683
      6678      6681      6684      6679      6678      6680      6679      6678      6681
      6680      6678      6681      6681      6684      6685      6681      6684      6686
      6681      6684      6687      6682      6681      6683      6682      6681      6684
      6683      6681      6684      6684      6687      6688      6684      6687      6689
      6684      6687      6690      6685      6684      6686      6685      6684      6687
      6686      6684      6687      6688      6687      6689      6688      6687      6690
      6689      6687      6690      6691      6694      6695      6691      6694      6696
      6691      6694      6697      6692      6691      6693      6692      6691      6694
      6693      6691      6694      6694      6697      6698      6694      6697      6699
      6694      6697      6700      6695      6694      6696      6695      6694      6697
      6696      6694      6697      6697      6700      6701      6697      6700      6702
      6697      6700      6703      6698      6697      6699      6698      6697      6700
      6699      6697      6700      6700      6703      6704      6700      6703      6705
      6700      6703      6706      6701      6700      6702      6701      6700      6703
      6702      6700      6703      6703      6706      6707      6703      6706      6708
      6703      6706      6709      6704      6703      6705      6704      6703      6706
      6705      6703      6706      6706      6709      6710      6706      6709      6711
      6706      6709      6712      6707      6706      6708      6707      6706      6709
      6708      6706      6709      6709      6712      6713      6709      6712      6714
      6709      6712      6715      6710      6709      6711      6710      6709      6712
      6711      6709      6712      6712      6715      6716      6712      6715      6717
      6712      6715      6718      6713      6712      6714      6713      6712      6715
      6714      6712      6715      6715      6718      6719      6715      6718      6720
      6715      6718      6721      6716      6715      6717      6716      6715      6718
      6717      6715      6718      6718      6721      6722      6718      6721      6723
      6718      6721      6724      6719      6718      6720      6719      6718      6721
      6720      6718      6721      6721      6724      6725      6721      6724      6726
      6721      6724      6727      6722      6721      6723      6722      6721      6724
      6723      6721      6724      6724      6727      6728      6724      6727      6729
      6724      6727      6730      6725      6724      6726      6725      6724      6727
      6726      6724      6727      6727      6730      6731      6727      6730      6732
      6727      6730      6733      6728      6727      6729      6728      6727      6730
      6729      6727      6730      6730      6733      6734      6730      6733      6735
      6730      6733      6736      6731      6730      6732      6731      6730      6733
      6732      6730      6733      6733      6736      6737      6733      6736      6738
      6733      6736      6739      6734      6733      6735      6734      6733      6736
      6735      6733      6736      6737      6736      6738      6737      6736      6739
      6738      6736      6739      6740      6744      6745      6740      6744      6746
      6740      6744      6747      6741      6740      6742      6741      6740      6743
      6741      6740      6744      6742      6740      6743      6742      6740      6744
      6743      6740      6744      6744      6747      6748      6744      6747      6749
      6744      6747      6753      6745      6744      6746      6745      6744      6747
      6746      6744      6747      6747      6753      6750      6748      6747      6749
      6748      6747      6753      6749      6747      6753      6750      6754      6755
      6751      6750      6752      6751      6750      6753      6751      6750      6754
      6752      6750      6753      6752      6750      6754      6753      6750      6754
      6754      6755      6756      6754      6755      6757      6754      6755      6758
      6755      6758      6759      6755      6758      6760      6755      6758      6766
      6756      6755      6757      6756      6755      6758      6757      6755      6758
      6758      6760      6761      6758      6766      6767      6758      6766      6768
      6758      6766      6769      6759      6758      6760      6759      6758      6766
      6760      6758      6766      6760      6761      6762      6760      6761      6763
      6761      6763      6764      6761      6763      6765      6761      6763      6775
      6762      6761      6763      6763      6775      6776      6763      6775      6777
      6763      6775      6778      6764      6763      6765      6764      6763      6775
      6765      6763      6775      6766      6769      6770      6767      6766      6768
      6767      6766      6769      6768      6766      6769      6769      6770      6771
      6769      6770      6772      6770      6772      6773      6770      6772      6774
      6770      6772      6822      6771      6770      6772      6772      6822      6823
      6772      6822      6824      6772      6822      6825      6773      6772      6774
      6773      6772      6822      6774      6772      6822      6775      6778      6779
      6775      6778      6780      6775      6778      6781      6776      6775      6777
      6776      6775      6778      6777      6775      6778      6778      6781      6782
      6778      6781      6783      6778      6781      6784      6779      6778      6780
      6779      6778      6781      6780      6778      6781      6781      6784      6785
      6781      6784      6786      6781      6784      6787      6782      6781      6783
      6782      6781      6784      6783      6781      6784      6784      6787      6788
      6784      6787      6789      6784      6787      6790      6785      6784      6786
      6785      6784      6787      6786      6784      6787      6787      6790      6791
      6787      6790      6792      6787      6790      6793      6788      6787      6789
      6788      6787      6790      6789      6787      6790      6790      6793      6794
      6790      6793      6795      6791      6790      6792      6791      6790      6793
      6792      6790      6793      6793      6795      6796      6793      6795      6797
      6794      6793      6795      6795      6797      6798      6795      6797      6799
      6795      6797      6800      6796      6795      6797      6797      6800      6801
      6797      6800      6802      6797      6800      6803      6798      6797      6799
      6798      6797      6800      6799      6797      6800      6800      6803      6804
      6800      6803      6805      6800      6803      6806      6801      6800      6802
      6801      6800      6803      6802      6800      6803      6803      6806      6807
      6803      6806      6808      6803      6806      6809      6804      6803      6805
      6804      6803      6806      6805      6803      6806      6806      6809      6810
      6806      6809      6811      6806      6809      6812      6807      6806      6808
      6807      6806      6809      6808      6806      6809      6809      6812      6813
      6809      6812      6814      6809      6812      6815      6810      6809      6811
      6810      6809      6812      6811      6809      6812      6812      6815      6816
      6812      6815      6817      6812      6815      6818      6813      6812      6814
      6813      6812      6815      6814      6812      6815      6815      6818      6819
      6815      6818      6820      6815      6818      6821      6816      6815      6817
      6816      6815      6818      6817      6815      6818      6819      6818      6820
      6819      6818      6821      6820      6818      6821      6822      6825      6826
      6822      6825      6827      6822      6825      6828      6823      6822      6824
      6823      6822      6825      6824      6822      6825      6825      6828      6829
      6825      6828      6830      6825      6828      6831      6826      6825      6827
      6826      6825      6828      6827      6825      6828      6828      6831      6832
      6828      6831      6833      6828      6831      6834      6829      6828      6830
      6829      6828      6831      6830      6828      6831      6831      6834      6835
      6831      6834      6836      6831      6834      6837      6832      6831      6833
      6832      6831      6834      6833      6831      6834      6834      6837      6838
      6834      6837      6839      6834      6837      6840      6835      6834      6836
      6835      6834      6837      6836      6834      6837      6837      6840      6841
      6837      6840      6842      6837      6840      6843      6838      6837      6839
      6838      6837      6840      6839      6837      6840      6840      6843      6844
      6840      6843      6845      6840      6843      6846      6841      6840      6842
      6841      6840      6843      6842      6840      6843      6843      6846      6847
      6843      6846      6848      6843      6846      6849      6844      6843      6845
      6844      6843      6846      6845      6843      6846      6846      6849      6850
      6846      6849      6851      6846      6849      6852      6847      6846      6848
      6847      6846      6849      6848      6846      6849      6849      6852      6853
      6849      6852      6854      6849      6852      6855      6850      6849      6851
      6850      6849      6852      6851      6849      6852      6852      6855      6856
      6852      6855      6857      6852      6855      6858      6853      6852      6854
      6853      6852      6855      6854      6852      6855      6855      6858      6859
      6855      6858      6860      6855      6858      6861      6856      6855      6857
      6856      6855      6858      6857      6855      6858      6858      6861      6862
      6858      6861      6863      6858      6861      6864      6859      6858      6860
      6859      6858      6861      6860      6858      6861      6861      6864      6865
      6861      6864      6866      6861      6864      6867      6862      6861      6863
      6862      6861      6864      6863      6861      6864      6864      6867      6868
      6864      6867      6869      6864      6867      6870      6865      6864      6866
      6865      6864      6867      6866      6864      6867      6868      6867      6869
      6868      6867      6870      6869      6867      6870      6871      6875      6876
      6871      6875      6877      6871      6875      6880      6872      6871      6873
      6872      6871      6874      6872      6871      6875      6873      6871      6874
      6873      6871      6875      6874      6871      6875      6875      6877      6878
      6875      6877      6879      6875      6880      6881      6875      6880      6882
      6875      6880      6886      6876      6875      6877      6876      6875      6880
      6877      6875      6880      6878      6877      6879      6880      6886      6883
      6881      6880      6882      6881      6880      6886      6882      6880      6886
      6883      6887      6888      6884      6883      6885      6884      6883      6886
      6884      6883      6887      6885      6883      6886      6885      6883      6887
      6886      6883      6887      6887      6888      6889      6887      6888      6890
      6887      6888      6891      6888      6891      6892      6888      6891      6893
      6888      6891      6899      6889      6888      6890      6889      6888      6891
      6890      6888      6891      6891      6893      6894      6891      6899      6900
      6891      6899      6901      6891      6899      6902      6892      6891      6893
      6892      6891      6899      6893      6891      6899      6893      6894      6895
      6893      6894      6896      6894      6896      6897      6894      6896      6898
      6894      6896      6908      6895      6894      6896      6896      6908      6909
      6896      6908      6910      6896      6908      6911      6897      6896      6898
      6897      6896      6908      6898      6896      6908      6899      6902      6903
      6900      6899      6901      6900      6899      6902      6901      6899      6902
      6902      6903      6904      6902      6903      6905      6903      6905      6906
      6903      6905      6907      6903      6905      6955      6904      6903      6905
      6905      6955      6956      6905      6955      6957      6905      6955      6958
      6906      6905      6907      6906      6905      6955      6907      6905      6955
      6908      6911      6912      6908      6911      6913      6908      6911      6914
      6909      6908      6910      6909      6908      6911      6910      6908      6911
      6911      6914      6915      6911      6914      6916      6912      6911      6913
      6912      6911      6914      6913      6911      6914      6914      6916      6917
      6914      6916      6918      6915      6914      6916      6916      6918      6919
      6916      6918      6920      6916      6918      6921      6917      6916      6918
      6918      6921      6922      6918      6921      6923      6919      6918      6920
      6919      6918      6921      6920      6918      6921      6921      6923      6924
      6921      6923      6925      6922      6921      6923      6923      6925      6926
      6923      6925      6927      6923      6925      6928      6924      6923      6925
      6925      6928      6929      6925      6928      6930      6926      6925      6927
      6926      6925      6928      6927      6925      6928      6928      6930      6931
      6928      6930      6932      6929      6928      6930      6930      6932      6933
      6930      6932      6934      6930      6932      6935      6931      6930      6932
      6932      6935      6936      6932      6935      6937      6933      6932      6934
      6933      6932      6935      6934      6932      6935      6935      6937      6938
      6935      6937      6939      6936      6935      6937      6937      6939      6940
      6937      6939      6941      6937      6939      6942      6938      6937      6939
      6939      6942      6943      6939      6942      6944      6939      6942      6945
      6940      6939      6941      6940      6939      6942      6941      6939      6942
      6942      6945      6946      6942      6945      6947      6942      6945      6948
      6943      6942      6944      6943      6942      6945      6944      6942      6945
      6945      6948      6949      6945      6948      6950      6945      6948      6951
      6946      6945      6947      6946      6945      6948      6947      6945      6948
      6948      6951      6952      6948      6951      6953      6948      6951      6954
      6949      6948      6950      6949      6948      6951      6950      6948      6951
      6952      6951      6953      6952      6951      6954      6953      6951      6954
      6955      6958      6959      6955      6958      6960      6955      6958      6961
      6956      6955      6957      6956      6955      6958      6957      6955      6958
      6958      6961      6962      6958      6961      6963      6958      6961      6964
      6959      6958      6960      6959      6958      6961      6960      6958      6961
      6961      6964      6965      6961      6964      6966      6961      6964      6967
      6962      6961      6963      6962      6961      6964      6963      6961      6964
      6964      6967      6968      6964      6967      6969      6964      6967      6970
      6965      6964      6966      6965      6964      6967      6966      6964      6967
      6967      6970      6971      6967      6970      6972      6967      6970      6973
      6968      6967      6969      6968      6967      6970      6969      6967      6970
      6970      6973      6974      6970      6973      6975      6970      6973      6976
      6971      6970      6972      6971      6970      6973      6972      6970      6973
      6973      6976      6977      6973      6976      6978      6973      6976      6979
      6974      6973      6975      6974      6973      6976      6975      6973      6976
      6976      6979      6980      6976      6979      6981      6976      6979      6982
      6977      6976      6978      6977      6976      6979      6978      6976      6979
      6979      6982      6983      6979      6982      6984      6979      6982      6985
      6980      6979      6981      6980      6979      6982      6981      6979      6982
      6982      6985      6986      6982      6985      6987      6982      6985      6988
      6983      6982      6984      6983      6982      6985      6984      6982      6985
      6985      6988      6989      6985      6988      6990      6985      6988      6991
      6986      6985      6987      6986      6985      6988      6987      6985      6988
      6988      6991      6992      6988      6991      6993      6988      6991      6994
      6989      6988      6990      6989      6988      6991      6990      6988      6991
      6991      6994      6995      6991      6994      6996      6991      6994      6997
      6992      6991      6993      6992      6991      6994      6993      6991      6994
      6994      6997      6998      6994      6997      6999      6994      6997      7000
      6995      6994      6996      6995      6994      6997      6996      6994      6997
      6997      7000      7001      6997      7000      7002      6997      7000      7003
      6998      6997      6999      6998      6997      7000      6999      6997      7000
      7001      7000      7002      7001      7000      7003      7002      7000      7003
      7004      7005      7006      7004      7005      7007      7004      7005      7008
      7004      7009      7010      7004      7009      7011      7004      7009      7012
      7004      7013      7014      7004      7013      7015      7004      7013      7016
      7004      7017      7018      7004      7017      7019      7004      7017      7020
      7005      7004      7009      7005      7004      7013      7005      7004      7017
      7006      7005      7007      7006      7005      7008      7007      7005      7008
      7009      7004      7013      7009      7004      7017      7010      7009      7011
      7010      7009      7012      7011      7009      7012      7013      7004      7017
      7014      7013      7015      7014      7013      7016      7015      7013      7016
      7017      7020      7021      7017      7020      7022      7017      7020      7027
      7018      7017      7019      7018      7017      7020      7019      7017      7020
      7020      7027      7023      7021      7020      7022      7021      7020      7027
      7022      7020      7027      7023      7026      7028      7024      7023      7025
      7024      7023      7026      7024      7023      7027      7025      7023      7026
      7025      7023      7027      7026      7023      7027      7026      7028      7029
      7026      7028      7030      7026      7028      7033      7028      7033      7031
      7028      7033      7034      7028      7033      7035      7029      7028      7030
      7029      7028      7033      7030      7028      7033      7031      7033      7034
      7031      7033      7035      7031      7083      7084      7031      7083      7085
      7032      7031      7033      7032      7031      7083      7033      7031      7083
      7033      7035      7036      7033      7035      7037      7033      7035      7039
      7034      7033      7035      7035      7037      7038      7035      7039      7040
      7035      7039      7041      7036      7035      7037      7036      7035      7039
      7037      7035      7039      7039      7041      7042      7039      7041      7043
      7040      7039      7041      7041      7043      7044      7041      7043      7045
      7041      7043      7046      7042      7041      7043      7043      7046      7047
      7043      7046      7048      7043      7046      7049      7044      7043      7045
      7044      7043      7046      7045      7043      7046      7046      7049      7050
      7046      7049      7051      7046      7049      7052      7047      7046      7048
      7047      7046      7049      7048      7046      7049      7049      7052      7053
      7049      7052      7054      7049      7052      7055      7050      7049      7051
      7050      7049      7052      7051      7049      7052      7052      7055      7056
      7052      7055      7057      7052      7055      7058      7053      7052      7054
      7053      7052      7055      7054      7052      7055      7055      7058      7059
      7055      7058      7060      7055      7058      7061      7056      7055      7057
      7056      7055      7058      7057      7055      7058      7058      7061      7062
      7058      7061      7063      7058      7061      7064      7059      7058      7060
      7059      7058      7061      7060      7058      7061      7061      7064      7065
      7061      7064      7066      7061      7064      7067      7062      7061      7063
      7062      7061      7064      7063      7061      7064      7064      7067      7068
      7064      7067      7069      7064      7067      7070      7065      7064      7066
      7065      7064      7067      7066      7064      7067      7067      7070      7071
      7067      7070      7072      7067      7070      7073      7068      7067      7069
      7068      7067      7070      7069      7067      7070      7070      7073      7074
      7070      7073      7075      7070      7073      7076      7071      7070      7072
      7071      7070      7073      7072      7070      7073      7073      7076      7077
      7073      7076      7078      7073      7076      7079      7074      7073      7075
      7074      7073      7076      7075      7073      7076      7076      7079      7080
      7076      7079      7081      7076      7079      7082      7077      7076      7078
      7077      7076      7079      7078      7076      7079      7080      7079      7081
      7080      7079      7082      7081      7079      7082      7083      7085      7086
      7083      7085      7087      7083      7085      7088      7084      7083      7085
      7085      7088      7089      7085      7088      7090      7085      7088      7091
      7086      7085      7087      7086      7085      7088      7087      7085      7088
      7088      7091      7092      7088      7091      7093      7088      7091      7094
      7089      7088      7090      7089      7088      7091      7090      7088      7091
      7091      7094      7095      7091      7094      7096      7091      7094      7097
      7092      7091      7093      7092      7091      7094      7093      7091      7094
      7094      7097      7098      7094      7097      7099      7094      7097      7100
      7095      7094      7096      7095      7094      7097      7096      7094      7097
      7097      7100      7101      7097      7100      7102      7097      7100      7103
      7098      7097      7099      7098      7097      7100      7099      7097      7100
      7100      7103      7104      7100      7103      7105      7100      7103      7106
      7101      7100      7102      7101      7100      7103      7102      7100      7103
      7103      7106      7107      7103      7106      7108      7104      7103      7105
      7104      7103      7106      7105      7103      7106      7106      7108      7109
      7106      7108      7110      7107      7106      7108      7108      7110      7111
      7108      7110      7112      7108      7110      7113      7109      7108      7110
      7110      7113      7114      7110      7113      7115      7110      7113      7116
      7111      7110      7112      7111      7110      7113      7112      7110      7113
      7113      7116      7117      7113      7116      7118      7113      7116      7119
      7114      7113      7115      7114      7113      7116      7115      7113      7116
      7116      7119      7120      7116      7119      7121      7116      7119      7122
      7117      7116      7118      7117      7116      7119      7118      7116      7119
      7119      7122      7123      7119      7122      7124      7119      7122      7125
      7120      7119      7121      7120      7119      7122      7121      7119      7122
      7122      7125      7126      7122      7125      7127      7122      7125      7128
      7123      7122      7124      7123      7122      7125      7124      7122      7125
      7125      7128      7129      7125      7128      7130      7125      7128      7131
      7126      7125      7127      7126      7125      7128      7127      7125      7128
      7128      7131      7132      7128      7131      7133      7128      7131      7134
      7129      7128      7130      7129      7128      7131      7130      7128      7131
      7132      7131      7133      7132      7131      7134      7133      7131      7134
      7135      7139      7140      7135      7139      7141      7135      7139      7142
      7136      7135      7137      7136      7135      7138      7136      7135      7139
      7137      7135      7138      7137      7135      7139      7138      7135      7139
      7139      7142      7143      7139      7142      7144      7139      7142      7148
      7140      7139      7141      7140      7139      7142      7141      7139      7142
      7142      7148      7145      7143      7142      7144      7143      7142      7148
      7144      7142      7148      7145      7149      7150      7146      7145      7147
      7146      7145      7148      7146      7145      7149      7147      7145      7148
      7147      7145      7149      7148      7145      7149      7149      7150      7151
      7149      7150      7152      7149      7150      7153      7150      7153      7154
      7150      7153      7155      7150      7153      7161      7151      7150      7152
      7151      7150      7153      7152      7150      7153      7153      7155      7156
      7153      7161      7162      7153      7161      7163      7153      7161      7164
      7154      7153      7155      7154      7153      7161      7155      7153      7161
      7155      7156      7157      7155      7156      7158      7156      7158      7159
      7156      7158      7160      7156      7158      7170      7157      7156      7158
      7158      7170      7171      7158      7170      7172      7158      7170      7173
      7159      7158      7160      7159      7158      7170      7160      7158      7170
      7161      7164      7165      7162      7161      7163      7162      7161      7164
      7163      7161      7164      7164      7165      7166      7164      7165      7167
      7165      7167      7168      7165      7167      7169      7165      7167      7217
      7166      7165      7167      7167      7217      7218      7167      7217      7219
      7167      7217      7220      7168      7167      7169      7168      7167      7217
      7169      7167      7217      7170      7173      7174      7170      7173      7175
      7170      7173      7176      7171      7170      7172      7171      7170      7173
      7172      7170      7173      7173      7176      7177      7173      7176      7178
      7174      7173      7175      7174      7173      7176      7175      7173      7176
      7176      7178      7179      7176      7178      7180      7177      7176      7178
      7178      7180      7181      7178      7180      7182      7178      7180      7183
      7179      7178      7180      7180      7183      7184      7180      7183      7185
      7181      7180      7182      7181      7180      7183      7182      7180      7183
      7183      7185      7186      7183      7185      7187      7184      7183      7185
      7185      7187      7188      7185      7187      7189      7185      7187      7190
      7186      7185      7187      7187      7190      7191      7187      7190      7192
      7188      7187      7189      7188      7187      7190      7189      7187      7190
      7190      7192      7193      7190      7192      7194      7191      7190      7192
      7192      7194      7195      7192      7194      7196      7192      7194      7197
      7193      7192      7194      7194      7197      7198      7194      7197      7199
      7195      7194      7196      7195      7194      7197      7196      7194      7197
      7197      7199      7200      7197      7199      7201      7198      7197      7199
      7199      7201      7202      7199      7201      7203      7199      7201      7204
      7200      7199      7201      7201      7204      7205      7201      7204      7206
      7201      7204      7207      7202      7201      7203      7202      7201      7204
      7203      7201      7204      7204      7207      7208      7204      7207      7209
      7204      7207      7210      7205      7204      7206      7205      7204      7207
      7206      7204      7207      7207      7210      7211      7207      7210      7212
      7207      7210      7213      7208      7207      7209      7208      7207      7210
      7209      7207      7210      7210      7213      7214      7210      7213      7215
      7210      7213      7216      7211      7210      7212      7211      7210      7213
      7212      7210      7213      7214      7213      7215      7214      7213      7216
      7215      7213      7216      7217      7220      7221      7217      7220      7222
      7217      7220      7223      7218      7217      7219      7218      7217      7220
      7219      7217      7220      7220      7223      7224      7220      7223      7225
      7220      7223      7226      7221      7220      7222      7221      7220      7223
      7222      7220      7223      7223      7226      7227      7223      7226      7228
      7223      7226      7229      7224      7223      7225      7224      7223      7226
      7225      7223      7226      7226      7229      7230      7226      7229      7231
      7226      7229      7232      7227      7226      7228      7227      7226      7229
      7228      7226      7229      7229      7232      7233      7229      7232      7234
      7229      7232      7235      7230      7229      7231      7230      7229      7232
      7231      7229      7232      7232      7235      7236      7232      7235      7237
      7232      7235      7238      7233      7232      7234      7233      7232      7235
      7234      7232      7235      7235      7238      7239      7235      7238      7240
      7235      7238      7241      7236      7235      7237      7236      7235      7238
      7237      7235      7238      7238      7241      7242      7238      7241      7243
      7238      7241      7244      7239      7238      7240      7239      7238      7241
      7240      7238      7241      7241      7244      7245      7241      7244      7246
      7241      7244      7247      7242      7241      7243      7242      7241      7244
      7243      7241      7244      7244      7247      7248      7244      7247      7249
      7244      7247      7250      7245      7244      7246      7245      7244      7247
      7246      7244      7247      7247      7250      7251      7247      7250      7252
      7247      7250      7253      7248      7247      7249      7248      7247      7250
      7249      7247      7250      7250      7253      7254      7250      7253      7255
      7250      7253      7256      7251      7250      7252      7251      7250      7253
      7252      7250      7253      7253      7256      7257      7253      7256      7258
      7253      7256      7259      7254      7253      7255      7254      7253      7256
      7255      7253      7256      7256      7259      7260      7256      7259      7261
      7256      7259      7262      7257      7256      7258      7257      7256      7259
      7258      7256      7259      7259      7262      7263      7259      7262      7264
      7259      7262      7265      7260      7259      7261      7260      7259      7262
      7261      7259      7262      7263      7262      7264      7263      7262      7265
      7264      7262      7265      7266      7267      7268      7266      7267      7269
      7266      7267      7282      7266      7270      7271      7266      7270      7272
      7266      7270      7273      7266      7274      7275      7266      7274      7276
      7266      7274      7277      7266      7278      7279      7266      7278      7280
      7266      7278      7281      7267      7266      7270      7267      7266      7274
      7267      7266      7278      7267      7282      7283      7267      7282      7284
      7267      7282      7288      7268      7267      7269      7268      7267      7282
      7269      7267      7282      7270      7266      7274      7270      7266      7278
      7271      7270      7272      7271      7270      7273      7272      7270      7273
      7274      7266      7278      7275      7274      7276      7275      7274      7277
      7276      7274      7277      7279      7278      7280      7279      7278      7281
      7280      7278      7281      7282      7288      7285      7283      7282      7284
      7283      7282      7288      7284      7282      7288      7285      7289      7290
      7286      7285      7287      7286      7285      7288      7286      7285      7289
      7287      7285      7288      7287      7285      7289      7288      7285      7289
      7289      7290      7291      7289      7290      7292      7289      7290      7293
      7290      7293      7294      7290      7293      7295      7290      7293      7301
      7291      7290      7292      7291      7290      7293      7292      7290      7293
      7293      7295      7296      7293      7301      7302      7293      7301      7303
      7293      7301      7304      7294      7293      7295      7294      7293      7301
      7295      7293      7301      7295      7296      7297      7295      7296      7298
      7296      7298      7299      7296      7298      7300      7296      7298      7310
      7297      7296      7298      7298      7310      7311      7298      7310      7312
      7298      7310      7313      7299      7298      7300      7299      7298      7310
      7300      7298      7310      7301      7304      7305      7302      7301      7303
      7302      7301      7304      7303      7301      7304      7304      7305      7306
      7304      7305      7307      7305      7307      7308      7305      7307      7309
      7305      7307      7357      7306      7305      7307      7307      7357      7358
      7307      7357      7359      7307      7357      7360      7308      7307      7309
      7308      7307      7357      7309      7307      7357      7310      7313      7314
      7310      7313      7315      7310      7313      7316      7311      7310      7312
      7311      7310      7313      7312      7310      7313      7313      7316      7317
      7313      7316      7318      7313      7316      7319      7314      7313      7315
      7314      7313      7316      7315      7313      7316      7316      7319      7320
      7316      7319      7321      7316      7319      7322      7317      7316      7318
      7317      7316      7319      7318      7316      7319      7319      7322      7323
      7319      7322      7324      7319      7322      7325      7320      7319      7321
      7320      7319      7322      7321      7319      7322      7322      7325      7326
      7322      7325      7327      7322      7325      7328      7323      7322      7324
      7323      7322      7325      7324      7322      7325      7325      7328      7329
      7325      7328      7330      7326      7325      7327      7326      7325      7328
      7327      7325      7328      7328      7330      7331      7328      7330      7332
      7329      7328      7330      7330      7332      7333      7330      7332      7334
      7330      7332      7335      7331      7330      7332      7332      7335      7336
      7332      7335      7337      7332      7335      7338      7333      7332      7334
      7333      7332      7335      7334      7332      7335      7335      7338      7339
      7335      7338      7340      7335      7338      7341      7336      7335      7337
      7336      7335      7338      7337      7335      7338      7338      7341      7342
      7338      7341      7343      7338      7341      7344      7339      7338      7340
      7339      7338      7341      7340      7338      7341      7341      7344      7345
      7341      7344      7346      7341      7344      7347      7342      7341      7343
      7342      7341      7344      7343      7341      7344      7344      7347      7348
      7344      7347      7349      7344      7347      7350      7345      7344      7346
      7345      7344      7347      7346      7344      7347      7347      7350      7351
      7347      7350      7352      7347      7350      7353      7348      7347      7349
      7348      7347      7350      7349      7347      7350      7350      7353      7354
      7350      7353      7355      7350      7353      7356      7351      7350      7352
      7351      7350      7353      7352      7350      7353      7354      7353      7355
      7354      7353      7356      7355      7353      7356      7357      7360      7361
      7357      7360      7362      7357      7360      7363      7358      7357      7359
      7358      7357      7360      7359      7357      7360      7360      7363      7364
      7360      7363      7365      7360      7363      7366      7361      7360      7362
      7361      7360      7363      7362      7360      7363      7363      7366      7367
      7363      7366      7368      7363      7366      7369      7364      7363      7365
      7364      7363      7366      7365      7363      7366      7366      7369      7370
      7366      7369      7371      7366      7369      7372      7367      7366      7368
      7367      7366      7369      7368      7366      7369      7369      7372      7373
      7369      7372      7374      7369      7372      7375      7370      7369      7371
      7370      7369      7372      7371      7369      7372      7372      7375      7376
      7372      7375      7377      7372      7375      7378      7373      7372      7374
      7373      7372      7375      7374      7372      7375      7375      7378      7379
      7375      7378      7380      7375      7378      7381      7376      7375      7377
      7376      7375      7378      7377      7375      7378      7378      7381      7382
      7378      7381      7383      7378      7381      7384      7379      7378      7380
      7379      7378      7381      7380      7378      7381      7381      7384      7385
      7381      7384      7386      7381      7384      7387      7382      7381      7383
      7382      7381      7384      7383      7381      7384      7384      7387      7388
      7384      7387      7389      7384      7387      7390      7385      7384      7386
      7385      7384      7387      7386      7384      7387      7387      7390      7391
      7387      7390      7392      7387      7390      7393      7388      7387      7389
      7388      7387      7390      7389      7387      7390      7390      7393      7394
      7390      7393      7395      7390      7393      7396      7391      7390      7392
      7391      7390      7393      7392      7390      7393      7393      7396      7397
      7393      7396      7398      7393      7396      7399      7394      7393      7395
      7394      7393      7396      7395      7393      7396      7397      7396      7398
      7397      7396      7399      7398      7396      7399      7400      7404      7405
      7400      7404      7406      7400      7404      7407      7401      7400      7402
      7401      7400      7403      7401      7400      7404      7402      7400      7403
      7402      7400      7404      7403      7400      7404      7404      7407      7408
      7404      7407      7409      7404      7407      7413      7405      7404      7406
      7405      7404      7407      7406      7404      7407      7407      7413      7410
      7408      7407      7409      7408      7407      7413      7409      7407      7413
      7410      7414      7415      7411      7410      7412      7411      7410      7413
      7411      7410      7414      7412      7410      7413      7412      7410      7414
      7413      7410      7414      7414      7415      7416      7414      7415      7417
      7414      7415      7418      7415      7418      7419      7415      7418      7420
      7415      7418      7426      7416      7415      7417      7416      7415      7418
      7417      7415      7418      7418      7420      7421      7418      7426      7427
      7418      7426      7428      7418      7426      7429      7419      7418      7420
      7419      7418      7426      7420      7418      7426      7420      7421      7422
      7420      7421      7423      7421      7423      7424      7421      7423      7425
      7421      7423      7435      7422      7421      7423      7423      7435      7436
      7423      7435      7437      7423      7435      7438      7424      7423      7425
      7424      7423      7435      7425      7423      7435      7426      7429      7430
      7427      7426      7428      7427      7426      7429      7428      7426      7429
      7429      7430      7431      7429      7430      7432      7430      7432      7433
      7430      7432      7434      7430      7432      7482      7431      7430      7432
      7432      7482      7483      7432      7482      7484      7432      7482      7485
      7433      7432      7434      7433      7432      7482      7434      7432      7482
      7435      7438      7439      7435      7438      7440      7435      7438      7441
      7436      7435      7437      7436      7435      7438      7437      7435      7438
      7438      7441      7442      7438      7441      7443      7438      7441      7444
      7439      7438      7440      7439      7438      7441      7440      7438      7441
      7441      7444      7445      7441      7444      7446      7441      7444      7447
      7442      7441      7443      7442      7441      7444      7443      7441      7444
      7444      7447      7448      7444      7447      7449      7444      7447      7450
      7445      7444      7446      7445      7444      7447      7446      7444      7447
      7447      7450      7451      7447      7450      7452      7447      7450      7453
      7448      7447      7449      7448      7447      7450      7449      7447      7450
      7450      7453      7454      7450      7453      7455      7451      7450      7452
      7451      7450      7453      7452      7450      7453      7453      7455      7456
      7453      7455      7457      7454      7453      7455      7455      7457      7458
      7455      7457      7459      7455      7457      7460      7456      7455      7457
      7457      7460      7461      7457      7460      7462      7457      7460      7463
      7458      7457      7459      7458      7457      7460      7459      7457      7460
      7460      7463      7464      7460      7463      7465      7460      7463      7466
      7461      7460      7462      7461      7460      7463      7462      7460      7463
      7463      7466      7467      7463      7466      7468      7463      7466      7469
      7464      7463      7465      7464      7463      7466      7465      7463      7466
      7466      7469      7470      7466      7469      7471      7466      7469      7472
      7467      7466      7468      7467      7466      7469      7468      7466      7469
      7469      7472      7473      7469      7472      7474      7469      7472      7475
      7470      7469      7471      7470      7469      7472      7471      7469      7472
      7472      7475      7476      7472      7475      7477      7472      7475      7478
      7473      7472      7474      7473      7472      7475      7474      7472      7475
      7475      7478      7479      7475      7478      7480      7475      7478      7481
      7476      7475      7477      7476      7475      7478      7477      7475      7478
      7479      7478      7480      7479      7478      7481      7480      7478      7481
      7482      7485      7486      7482      7485      7487      7482      7485      7488
      7483      7482      7484      7483      7482      7485      7484      7482      7485
      7485      7488      7489      7485      7488      7490      7485      7488      7491
      7486      7485      7487      7486      7485      7488      7487      7485      7488
      7488      7491      7492      7488      7491      7493      7488      7491      7494
      7489      7488      7490      7489      7488      7491      7490      7488      7491
      7491      7494      7495      7491      7494      7496      7491      7494      7497
      7492      7491      7493      7492      7491      7494      7493      7491      7494
      7494      7497      7498      7494      7497      7499      7494      7497      7500
      7495      7494      7496      7495      7494      7497      7496      7494      7497
      7497      7500      7501      7497      7500      7502      7497      7500      7503
      7498      7497      7499      7498      7497      7500      7499      7497      7500
      7500      7503      7504      7500      7503      7505      7500      7503      7506
      7501      7500      7502      7501      7500      7503      7502      7500      7503
      7503      7506      7507      7503      7506      7508      7503      7506      7509
      7504      7503      7505      7504      7503      7506      7505      7503      7506
      7506      7509      7510      7506      7509      7511      7506      7509      7512
      7507      7506      7508      7507      7506      7509      7508      7506      7509
      7509      7512      7513      7509      7512      7514      7509      7512      7515
      7510      7509      7511      7510      7509      7512      7511      7509      7512
      7512      7515      7516      7512      7515      7517      7512      7515      7518
      7513      7512      7514      7513      7512      7515      7514      7512      7515
      7515      7518      7519      7515      7518      7520      7515      7518      7521
      7516      7515      7517      7516      7515      7518      7517      7515      7518
      7518      7521      7522      7518      7521      7523      7518      7521      7524
      7519      7518      7520      7519      7518      7521      7520      7518      7521
      7521      7524      7525      7521      7524      7526      7521      7524      7527
      7522      7521      7523      7522      7521      7524      7523      7521      7524
      7524      7527      7528      7524      7527      7529      7524      7527      7530
      7525      7524      7526      7525      7524      7527      7526      7524      7527
      7528      7527      7529      7528      7527      7530      7529      7527      7530
      7531      7533      7534      7531      7535      7536      7531      7535      7537
      7531      7535      7538      7531      7577      7574      7531      7577      7578
      7531      7577      7579      7532      7531      7533      7532      7531      7535
      7532      7531      7577      7533      7531      7535      7533      7531      7577
      7535      7531      7577      7535      7538      7539      7535      7538      7569
      7536      7535      7537      7536      7535      7538      7537      7535      7538
      7538      7539      7540      7538      7539      7541      7538      7569      7567
      7538      7569      7570      7538      7569      7574      7539      7538      7569
      7539      7541      7542      7539      7541      7543      7539      7541      7544
      7540      7539      7541      7541      7544      7545      7541      7544      7546
      7541      7544      7567      7542      7541      7543      7542      7541      7544
      7543      7541      7544      7544      7546      7547      7544      7546      7548
      7544      7546      7556      7544      7567      7564      7544      7567      7568
      7544      7567      7569      7545      7544      7546      7545      7544      7567
      7546      7544      7567      7546      7548      7549      7546      7548      7550
      7546      7548      7551      7546      7556      7554      7546      7556      7557
      7546      7556      7561      7547      7546      7548      7547      7546      7556
      7548      7546      7556      7548      7551      7552      7548      7551      7553
      7548      7551      7554      7549      7548      7550      7549      7548      7551
      7550      7548      7551      7551      7554      7555      7551      7554      7556
      7551      7554      7580      7552      7551      7553      7552      7551      7554
      7553      7551      7554      7554      7556      7557      7554      7556      7561
      7554      7580      7581      7554      7580      7582      7554      7580      7586
      7555      7554      7556      7555      7554      7580      7556      7554      7580
      7556      7557      7558      7556      7557      7559      7556      7557      7560
      7556      7561      7562      7556      7561      7563      7556      7561      7564
      7557      7556      7561      7558      7557      7559      7558      7557      7560
      7559      7557      7560      7561      7564      7565      7561      7564      7566
      7561      7564      7567      7562      7561      7563      7562      7561      7564
      7563      7561      7564      7564      7567      7568      7564      7567      7569
      7565      7564      7566      7565      7564      7567      7566      7564      7567
      7567      7569      7570      7567      7569      7574      7568      7567      7569
      7569      7570      7571      7569      7570      7572      7569      7570      7573
      7569      7574      7575      7569      7574      7576      7569      7574      7577
      7570      7569      7574      7571      7570      7572      7571      7570      7573
      7572      7570      7573      7574      7577      7578      7574      7577      7579
      7575      7574      7576      7575      7574      7577      7576      7574      7577
      7578      7577      7579      7580      7582      7583      7580      7582      7584
      7580      7582      7585      7580      7586      7587      7580      7586      7588
      7580      7586      7589      7581      7580      7582      7581      7580      7586
      7582      7580      7586      7583      7582      7584      7583      7582      7585
      7584      7582      7585      7586      7589      7590      7586      7589      7591
      7586      7589      7592      7587      7586      7588      7587      7586      7589
      7588      7586      7589      7589      7592      7593      7589      7592      7594
      7589      7592      7595      7590      7589      7591      7590      7589      7592
      7591      7589      7592      7592      7595      7596      7592      7595      7597
      7592      7595      7601      7593      7592      7594      7593      7592      7595
      7594      7592      7595      7595      7597      7598      7595      7597      7599
      7595      7597      7600      7595      7601      7602      7595      7601      7603
      7595      7601      7604      7596      7595      7597      7596      7595      7601
      7597      7595      7601      7598      7597      7599      7598      7597      7600
      7599      7597      7600      7602      7601      7603      7602      7601      7604
      7603      7601      7604      7605      7606      7607      7605      7606      7608
      7605      7606      7621      7605      7609      7610      7605      7609      7611
      7605      7609      7612      7605      7613      7614      7605      7613      7615
      7605      7613      7616      7605      7617      7618      7605      7617      7619
      7605      7617      7620      7606      7605      7609      7606      7605      7613
      7606      7605      7617      7606      7621      7622      7606      7621      7623
      7606      7621      7627      7607      7606      7608      7607      7606      7621
      7608      7606      7621      7609      7605      7613      7609      7605      7617
      7610      7609      7611      7610      7609      7612      7611      7609      7612
      7613      7605      7617      7614      7613      7615      7614      7613      7616
      7615      7613      7616      7618      7617      7619      7618      7617      7620
      7619      7617      7620      7621      7627      7624      7622      7621      7623
      7622      7621      7627      7623      7621      7627      7624      7628      7629
      7625      7624      7626      7625      7624      7627      7625      7624      7628
      7626      7624      7627      7626      7624      7628      7627      7624      7628
      7628      7629      7630      7628      7629      7631      7628      7629      7632
      7629      7632      7633      7629      7632      7634      7629      7632      7640
      7630      7629      7631      7630      7629      7632      7631      7629      7632
      7632      7634      7635      7632      7640      7641      7632      7640      7642
      7632      7640      7643      7633      7632      7634      7633      7632      7640
      7634      7632      7640      7634      7635      7636      7634      7635      7637
      7635      7637      7638      7635      7637      7639      7635      7637      7649
      7636      7635      7637      7637      7649      7650      7637      7649      7651
      7637      7649      7652      7638      7637      7639      7638      7637      7649
      7639      7637      7649      7640      7643      7644      7641      7640      7642
      7641      7640      7643      7642      7640      7643      7643      7644      7645
      7643      7644      7646      7644      7646      7647      7644      7646      7648
      7644      7646      7696      7645      7644      7646      7646      7696      7697
      7646      7696      7698      7646      7696      7699      7647      7646      7648
      7647      7646      7696      7648      7646      7696      7649      7652      7653
      7649      7652      7654      7649      7652      7655      7650      7649      7651
      7650      7649      7652      7651      7649      7652      7652      7655      7656
      7652      7655      7657      7653      7652      7654      7653      7652      7655
      7654      7652      7655      7655      7657      7658      7655      7657      7659
      7656      7655      7657      7657      7659      7660      7657      7659      7661
      7657      7659      7662      7658      7657      7659      7659      7662      7663
      7659      7662      7664      7660      7659      7661      7660      7659      7662
      7661      7659      7662      7662      7664      7665      7662      7664      7666
      7663      7662      7664      7664      7666      7667      7664      7666      7668
      7664      7666      7669      7665      7664      7666      7666      7669      7670
      7666      7669      7671      7667      7666      7668      7667      7666      7669
      7668      7666      7669      7669      7671      7672      7669      7671      7673
      7670      7669      7671      7671      7673      7674      7671      7673      7675
      7671      7673      7676      7672      7671      7673      7673      7676      7677
      7673      7676      7678      7674      7673      7675      7674      7673      7676
      7675      7673      7676      7676      7678      7679      7676      7678      7680
      7677      7676      7678      7678      7680      7681      7678      7680      7682
      7678      7680      7683      7679      7678      7680      7680      7683      7684
      7680      7683      7685      7680      7683      7686      7681      7680      7682
      7681      7680      7683      7682      7680      7683      7683      7686      7687
      7683      7686      7688      7683      7686      7689      7684      7683      7685
      7684      7683      7686      7685      7683      7686      7686      7689      7690
      7686      7689      7691      7686      7689      7692      7687      7686      7688
      7687      7686      7689      7688      7686      7689      7689      7692      7693
      7689      7692      7694      7689      7692      7695      7690      7689      7691
      7690      7689      7692      7691      7689      7692      7693      7692      7694
      7693      7692      7695      7694      7692      7695      7696      7699      7700
      7696      7699      7701      7696      7699      7702      7697      7696      7698
      7697      7696      7699      7698      7696      7699      7699      7702      7703
      7699      7702      7704      7699      7702      7705      7700      7699      7701
      7700      7699      7702      7701      7699      7702      7702      7705      7706
      7702      7705      7707      7702      7705      7708      7703      7702      7704
      7703      7702      7705      7704      7702      7705      7705      7708      7709
      7705      7708      7710      7705      7708      7711      7706      7705      7707
      7706      7705      7708      7707      7705      7708      7708      7711      7712
      7708      7711      7713      7708      7711      7714      7709      7708      7710
      7709      7708      7711      7710      7708      7711      7711      7714      7715
      7711      7714      7716      7711      7714      7717      7712      7711      7713
      7712      7711      7714      7713      7711      7714      7714      7717      7718
      7714      7717      7719      7714      7717      7720      7715      7714      7716
      7715      7714      7717      7716      7714      7717      7717      7720      7721
      7717      7720      7722      7717      7720      7723      7718      7717      7719
      7718      7717      7720      7719      7717      7720      7720      7723      7724
      7720      7723      7725      7720      7723      7726      7721      7720      7722
      7721      7720      7723      7722      7720      7723      7723      7726      7727
      7723      7726      7728      7723      7726      7729      7724      7723      7725
      7724      7723      7726      7725      7723      7726      7726      7729      7730
      7726      7729      7731      7726      7729      7732      7727      7726      7728
      7727      7726      7729      7728      7726      7729      7729      7732      7733
      7729      7732      7734      7729      7732      7735      7730      7729      7731
      7730      7729      7732      7731      7729      7732      7732      7735      7736
      7732      7735      7737      7732      7735      7738      7733      7732      7734
      7733      7732      7735      7734      7732      7735      7735      7738      7739
      7735      7738      7740      7735      7738      7741      7736      7735      7737
      7736      7735      7738      7737      7735      7738      7738      7741      7742
      7738      7741      7743      7738      7741      7744      7739      7738      7740
      7739      7738      7741      7740      7738      7741      7742      7741      7743
      7742      7741      7744      7743      7741      7744      7745      7749      7750
      7745      7749      7751      7745      7749      7752      7746      7745      7747
      7746      7745      7748      7746      7745      7749      7747      7745      7748
      7747      7745      7749      7748      7745      7749      7749      7752      7753
      7749      7752      7754      7749      7752      7758      7750      7749      7751
      7750      7749      7752      7751      7749      7752      7752      7758      7755
      7753      7752      7754      7753      7752      7758      7754      7752      7758
      7755      7759      7760      7756      7755      7757      7756      7755      7758
      7756      7755      7759      7757      7755      7758      7757      7755      7759
      7758      7755      7759      7759      7760      7761      7759      7760      7762
      7759      7760      7763      7760      7763      7764      7760      7763      7765
      7760      7763      7771      7761      7760      7762      7761      7760      7763
      7762      7760      7763      7763      7765      7766      7763      7771      7772
      7763      7771      7773      7763      7771      7774      7764      7763      7765
      7764      7763      7771      7765      7763      7771      7765      7766      7767
      7765      7766      7768      7766      7768      7769      7766      7768      7770
      7766      7768      7780      7767      7766      7768      7768      7780      7781
      7768      7780      7782      7768      7780      7783      7769      7768      7770
      7769      7768      7780      7770      7768      7780      7771      7774      7775
      7772      7771      7773      7772      7771      7774      7773      7771      7774
      7774      7775      7776      7774      7775      7777      7775      7777      7778
      7775      7777      7779      7775      7777      7827      7776      7775      7777
      7777      7827      7828      7777      7827      7829      7777      7827      7830
      7778      7777      7779      7778      7777      7827      7779      7777      7827
      7780      7783      7784      7780      7783      7785      7780      7783      7786
      7781      7780      7782      7781      7780      7783      7782      7780      7783
      7783      7786      7787      7783      7786      7788      7784      7783      7785
      7784      7783      7786      7785      7783      7786      7786      7788      7789
      7786      7788      7790      7787      7786      7788      7788      7790      7791
      7788      7790      7792      7788      7790      7793      7789      7788      7790
      7790      7793      7794      7790      7793      7795      7791      7790      7792
      7791      7790      7793      7792      7790      7793      7793      7795      7796
      7793      7795      7797      7794      7793      7795      7795      7797      7798
      7795      7797      7799      7795      7797      7800      7796      7795      7797
      7797      7800      7801      7797      7800      7802      7798      7797      7799
      7798      7797      7800      7799      7797      7800      7800      7802      7803
      7800      7802      7804      7801      7800      7802      7802      7804      7805
      7802      7804      7806      7802      7804      7807      7803      7802      7804
      7804      7807      7808      7804      7807      7809      7805      7804      7806
      7805      7804      7807      7806      7804      7807      7807      7809      7810
      7807      7809      7811      7808      7807      7809      7809      7811      7812
      7809      7811      7813      7809      7811      7814      7810      7809      7811
      7811      7814      7815      7811      7814      7816      7811      7814      7817
      7812      7811      7813      7812      7811      7814      7813      7811      7814
      7814      7817      7818      7814      7817      7819      7814      7817      7820
      7815      7814      7816      7815      7814      7817      7816      7814      7817
      7817      7820      7821      7817      7820      7822      7817      7820      7823
      7818      7817      7819      7818      7817      7820      7819      7817      7820
      7820      7823      7824      7820      7823      7825      7820      7823      7826
      7821      7820      7822      7821      7820      7823      7822      7820      7823
      7824      7823      7825      7824      7823      7826      7825      7823      7826
      7827      7830      7831      7827      7830      7832      7827      7830      7833
      7828      7827      7829      7828      7827      7830      7829      7827      7830
      7830      7833      7834      7830      7833      7835      7830      7833      7836
      7831      7830      7832      7831      7830      7833      7832      7830      7833
      7833      7836      7837      7833      7836      7838      7833      7836      7839
      7834      7833      7835      7834      7833      7836      7835      7833      7836
      7836      7839      7840      7836      7839      7841      7836      7839      7842
      7837      7836      7838      7837      7836      7839      7838      7836      7839
      7839      7842      7843      7839      7842      7844      7839      7842      7845
      7840      7839      7841      7840      7839      7842      7841      7839      7842
      7842      7845      7846      7842      7845      7847      7842      7845      7848
      7843      7842      7844      7843      7842      7845      7844      7842      7845
      7845      7848      7849      7845      7848      7850      7845      7848      7851
      7846      7845      7847      7846      7845      7848      7847      7845      7848
      7848      7851      7852      7848      7851      7853      7848      7851      7854
      7849      7848      7850      7849      7848      7851      7850      7848      7851
      7851      7854      7855      7851      7854      7856      7851      7854      7857
      7852      7851      7853      7852      7851      7854      7853      7851      7854
      7854      7857      7858      7854      7857      7859      7854      7857      7860
      7855      7854      7856      7855      7854      7857      7856      7854      7857
      7857      7860      7861      7857      7860      7862      7857      7860      7863
      7858      7857      7859      7858      7857      7860      7859      7857      7860
      7860      7863      7864      7860      7863      7865      7860      7863      7866
      7861      7860      7862      7861      7860      7863      7862      7860      7863
      7863      7866      7867      7863      7866      7868      7863      7866      7869
      7864      7863      7865      7864      7863      7866      7865      7863      7866
      7866      7869      7870      7866      7869      7871      7866      7869      7872
      7867      7866      7868      7867      7866      7869      7868      7866      7869
      7869      7872      7873      7869      7872      7874      7869      7872      7875
      7870      7869      7871      7870      7869      7872      7871      7869      7872
      7873      7872      7874      7873      7872      7875      7874      7872      7875
      7876      7880      7881      7876      7880      7882      7876      7880      7883
      7877      7876      7878      7877      7876      7879      7877      7876      7880
      7878      7876      7879      7878      7876      7880      7879      7876      7880
      7880      7883      7884      7880      7883      7885      7880      7883      7889
      7881      7880      7882      7881      7880      7883      7882      7880      7883
      7883      7889      7886      7884      7883      7885      7884      7883      7889
      7885      7883      7889      7886      7890      7891      7887      7886      7888
      7887      7886      7889      7887      7886      7890      7888      7886      7889
      7888      7886      7890      7889      7886      7890      7890      7891      7892
      7890      7891      7893      7890      7891      7894      7891      7894      7895
      7891      7894      7896      7891      7894      7902      7892      7891      7893
      7892      7891      7894      7893      7891      7894      7894      7896      7897
      7894      7902      7903      7894      7902      7904      7894      7902      7905
      7895      7894      7896      7895      7894      7902      7896      7894      7902
      7896      7897      7898      7896      7897      7899      7897      7899      7900
      7897      7899      7901      7897      7899      7911      7898      7897      7899
      7899      7911      7912      7899      7911      7913      7899      7911      7914
      7900      7899      7901      7900      7899      7911      7901      7899      7911
      7902      7905      7906      7903      7902      7904      7903      7902      7905
      7904      7902      7905      7905      7906      7907      7905      7906      7908
      7906      7908      7909      7906      7908      7910      7906      7908      7958
      7907      7906      7908      7908      7958      7959      7908      7958      7960
      7908      7958      7961      7909      7908      7910      7909      7908      7958
      7910      7908      7958      7911      7914      7915      7911      7914      7916
      7911      7914      7917      7912      7911      7913      7912      7911      7914
      7913      7911      7914      7914      7917      7918      7914      7917      7919
      7915      7914      7916      7915      7914      7917      7916      7914      7917
      7917      7919      7920      7917      7919      7921      7918      7917      7919
      7919      7921      7922      7919      7921      7923      7919      7921      7924
      7920      7919      7921      7921      7924      7925      7921      7924      7926
      7922      7921      7923      7922      7921      7924      7923      7921      7924
      7924      7926      7927      7924      7926      7928      7925      7924      7926
      7926      7928      7929      7926      7928      7930      7926      7928      7931
      7927      7926      7928      7928      7931      7932      7928      7931      7933
      7929      7928      7930      7929      7928      7931      7930      7928      7931
      7931      7933      7934      7931      7933      7935      7932      7931      7933
      7933      7935      7936      7933      7935      7937      7933      7935      7938
      7934      7933      7935      7935      7938      7939      7935      7938      7940
      7936      7935      7937      7936      7935      7938      7937      7935      7938
      7938      7940      7941      7938      7940      7942      7939      7938      7940
      7940      7942      7943      7940      7942      7944      7940      7942      7945
      7941      7940      7942      7942      7945      7946      7942      7945      7947
      7942      7945      7948      7943      7942      7944      7943      7942      7945
      7944      7942      7945      7945      7948      7949      7945      7948      7950
      7945      7948      7951      7946      7945      7947      7946      7945      7948
      7947      7945      7948      7948      7951      7952      7948      7951      7953
      7948      7951      7954      7949      7948      7950      7949      7948      7951
      7950      7948      7951      7951      7954      7955      7951      7954      7956
      7951      7954      7957      7952      7951      7953      7952      7951      7954
      7953      7951      7954      7955      7954      7956      7955      7954      7957
      7956      7954      7957      7958      7961      7962      7958      7961      7963
      7958      7961      7964      7959      7958      7960      7959      7958      7961
      7960      7958      7961      7961      7964      7965      7961      7964      7966
      7961      7964      7967      7962      7961      7963      7962      7961      7964
      7963      7961      7964      7964      7967      7968      7964      7967      7969
      7964      7967      7970      7965      7964      7966      7965      7964      7967
      7966      7964      7967      7967      7970      7971      7967      7970      7972
      7967      7970      7973      7968      7967      7969      7968      7967      7970
      7969      7967      7970      7970      7973      7974      7970      7973      7975
      7970      7973      7976      7971      7970      7972      7971      7970      7973
      7972      7970      7973      7973      7976      7977      7973      7976      7978
      7973      7976      7979      7974      7973      7975      7974      7973      7976
      7975      7973      7976      7976      7979      7980      7976      7979      7981
      7976      7979      7982      7977      7976      7978      7977      7976      7979
      7978      7976      7979      7979      7982      7983      7979      7982      7984
      7979      7982      7985      7980      7979      7981      7980      7979      7982
      7981      7979      7982      7982      7985      7986      7982      7985      7987
      7982      7985      7988      7983      7982      7984      7983      7982      7985
      7984      7982      7985      7985      7988      7989      7985      7988      7990
      7985      7988      7991      7986      7985      7987      7986      7985      7988
      7987      7985      7988      7988      7991      7992      7988      7991      7993
      7988      7991      7994      7989      7988      7990      7989      7988      7991
      7990      7988      7991      7991      7994      7995      7991      7994      7996
      7991      7994      7997      7992      7991      7993      7992      7991      7994
      7993      7991      7994      7994      7997      7998      7994      7997      7999
      7994      7997      8000      7995      7994      7996      7995      7994      7997
      7996      7994      7997      7997      8000      8001      7997      8000      8002
      7997      8000      8003      7998      7997      7999      7998      7997      8000
      7999      7997      8000      8000      8003      8004      8000      8003      8005
      8000      8003      8006      8001      8000      8002      8001      8000      8003
      8002      8000      8003      8004      8003      8005      8004      8003      8006
      8005      8003      8006      8007      8009      8010      8007      8011      8012
      8007      8011      8013      8007      8011      8014      8007      8053      8050
      8007      8053      8054      8007      8053      8055      8008      8007      8009
      8008      8007      8011      8008      8007      8053      8009      8007      8011
      8009      8007      8053      8011      8007      8053      8011      8014      8015
      8011      8014      8045      8012      8011      8013      8012      8011      8014
      8013      8011      8014      8014      8015      8016      8014      8015      8017
      8014      8045      8043      8014      8045      8046      8014      8045      8050
      8015      8014      8045      8015      8017      8018      8015      8017      8019
      8015      8017      8020      8016      8015      8017      8017      8020      8021
      8017      8020      8022      8017      8020      8043      8018      8017      8019
      8018      8017      8020      8019      8017      8020      8020      8022      8023
      8020      8022      8024      8020      8022      8032      8020      8043      8040
      8020      8043      8044      8020      8043      8045      8021      8020      8022
      8021      8020      8043      8022      8020      8043      8022      8024      8025
      8022      8024      8026      8022      8024      8027      8022      8032      8030
      8022      8032      8033      8022      8032      8037      8023      8022      8024
      8023      8022      8032      8024      8022      8032      8024      8027      8028
      8024      8027      8029      8024      8027      8030      8025      8024      8026
      8025      8024      8027      8026      8024      8027      8027      8030      8031
      8027      8030      8032      8027      8030      8056      8028      8027      8029
      8028      8027      8030      8029      8027      8030      8030      8032      8033
      8030      8032      8037      8030      8056      8057      8030      8056      8058
      8030      8056      8062      8031      8030      8032      8031      8030      8056
      8032      8030      8056      8032      8033      8034      8032      8033      8035
      8032      8033      8036      8032      8037      8038      8032      8037      8039
      8032      8037      8040      8033      8032      8037      8034      8033      8035
      8034      8033      8036      8035      8033      8036      8037      8040      8041
      8037      8040      8042      8037      8040      8043      8038      8037      8039
      8038      8037      8040      8039      8037      8040      8040      8043      8044
      8040      8043      8045      8041      8040      8042      8041      8040      8043
      8042      8040      8043      8043      8045      8046      8043      8045      8050
      8044      8043      8045      8045      8046      8047      8045      8046      8048
      8045      8046      8049      8045      8050      8051      8045      8050      8052
      8045      8050      8053      8046      8045      8050      8047      8046      8048
      8047      8046      8049      8048      8046      8049      8050      8053      8054
      8050      8053      8055      8051      8050      8052      8051      8050      8053
      8052      8050      8053      8054      8053      8055      8056      8058      8059
      8056      8058      8060      8056      8058      8061      8056      8062      8063
      8056      8062      8064      8056      8062      8065      8057      8056      8058
      8057      8056      8062      8058      8056      8062      8059      8058      8060
      8059      8058      8061      8060      8058      8061      8062      8065      8066
      8062      8065      8067      8062      8065      8068      8063      8062      8064
      8063      8062      8065      8064      8062      8065      8065      8068      8069
      8065      8068      8070      8065      8068      8071      8066      8065      8067
      8066      8065      8068      8067      8065      8068      8068      8071      8072
      8068      8071      8073      8068      8071      8077      8069      8068      8070
      8069      8068      8071      8070      8068      8071      8071      8073      8074
      8071      8073      8075      8071      8073      8076      8071      8077      8078
      8071      8077      8079      8071      8077      8080      8072      8071      8073
      8072      8071      8077      8073      8071      8077      8074      8073      8075
      8074      8073      8076      8075      8073      8076      8078      8077      8079
      8078      8077      8080      8079      8077      8080      8081      8083      8084
      8081      8085      8086      8081      8085      8087      8081      8085      8089
      8081      8101      8097      8081      8101      8102      8081      8101      8106
      8082      8081      8083      8082      8081      8085      8082      8081      8101
      8083      8081      8085      8083      8081      8101      8085      8081      8101
      8085      8087      8088      8085      8089      8090      8085      8089      8091
      8085      8089      8093      8086      8085      8087      8086      8085      8089
      8087      8085      8089      8089      8091      8092      8089      8093      8094
      8089      8093      8095      8089      8093      8097      8090      8089      8091
      8090      8089      8093      8091      8089      8093      8093      8095      8096
      8093      8097      8098      8093      8097      8099      8093      8097      8101
      8094      8093      8095      8094      8093      8097      8095      8093      8097
      8097      8099      8100      8097      8101      8102      8097      8101      8106
      8098      8097      8099      8098      8097      8101      8099      8097      8101
      8101      8106      8103      8102      8101      8106      8103      8107      8108
      8104      8103      8105      8104      8103      8106      8104      8103      8107
      8105      8103      8106      8105      8103      8107      8106      8103      8107
      8107      8108      8109      8107      8108      8110      8107      8108      8111
      8108      8111      8112      8108      8111      8113      8108      8111      8119
      8109      8108      8110      8109      8108      8111      8110      8108      8111
      8111      8113      8114      8111      8119      8120      8111      8119      8121
      8111      8119      8122      8112      8111      8113      8112      8111      8119
      8113      8111      8119      8113      8114      8115      8113      8114      8116
      8114      8116      8117      8114      8116      8118      8114      8116      8128
      8115      8114      8116      8116      8128      8129      8116      8128      8130
      8116      8128      8131      8117      8116      8118      8117      8116      8128
      8118      8116      8128      8119      8122      8123      8120      8119      8121
      8120      8119      8122      8121      8119      8122      8122      8123      8124
      8122      8123      8125      8123      8125      8126      8123      8125      8127
      8123      8125      8175      8124      8123      8125      8125      8175      8176
      8125      8175      8177      8125      8175      8178      8126      8125      8127
      8126      8125      8175      8127      8125      8175      8128      8131      8132
      8128      8131      8133      8128      8131      8134      8129      8128      8130
      8129      8128      8131      8130      8128      8131      8131      8134      8135
      8131      8134      8136      8132      8131      8133      8132      8131      8134
      8133      8131      8134      8134      8136      8137      8134      8136      8138
      8135      8134      8136      8136      8138      8139      8136      8138      8140
      8136      8138      8141      8137      8136      8138      8138      8141      8142
      8138      8141      8143      8139      8138      8140      8139      8138      8141
      8140      8138      8141      8141      8143      8144      8141      8143      8145
      8142      8141      8143      8143      8145      8146      8143      8145      8147
      8143      8145      8148      8144      8143      8145      8145      8148      8149
      8145      8148      8150      8146      8145      8147      8146      8145      8148
      8147      8145      8148      8148      8150      8151      8148      8150      8152
      8149      8148      8150      8150      8152      8153      8150      8152      8154
      8150      8152      8155      8151      8150      8152      8152      8155      8156
      8152      8155      8157      8153      8152      8154      8153      8152      8155
      8154      8152      8155      8155      8157      8158      8155      8157      8159
      8156      8155      8157      8157      8159      8160      8157      8159      8161
      8157      8159      8162      8158      8157      8159      8159      8162      8163
      8159      8162      8164      8159      8162      8165      8160      8159      8161
      8160      8159      8162      8161      8159      8162      8162      8165      8166
      8162      8165      8167      8162      8165      8168      8163      8162      8164
      8163      8162      8165      8164      8162      8165      8165      8168      8169
      8165      8168      8170      8165      8168      8171      8166      8165      8167
      8166      8165      8168      8167      8165      8168      8168      8171      8172
      8168      8171      8173      8168      8171      8174      8169      8168      8170
      8169      8168      8171      8170      8168      8171      8172      8171      8173
      8172      8171      8174      8173      8171      8174      8175      8178      8179
      8175      8178      8180      8175      8178      8181      8176      8175      8177
      8176      8175      8178      8177      8175      8178      8178      8181      8182
      8178      8181      8183      8178      8181      8184      8179      8178      8180
      8179      8178      8181      8180      8178      8181      8181      8184      8185
      8181      8184      8186      8181      8184      8187      8182      8181      8183
      8182      8181      8184      8183      8181      8184      8184      8187      8188
      8184      8187      8189      8184      8187      8190      8185      8184      8186
      8185      8184      8187      8186      8184      8187      8187      8190      8191
      8187      8190      8192      8187      8190      8193      8188      8187      8189
      8188      8187      8190      8189      8187      8190      8190      8193      8194
      8190      8193      8195      8190      8193      8196      8191      8190      8192
      8191      8190      8193      8192      8190      8193      8193      8196      8197
      8193      8196      8198      8193      8196      8199      8194      8193      8195
      8194      8193      8196      8195      8193      8196      8196      8199      8200
      8196      8199      8201      8196      8199      8202      8197      8196      8198
      8197      8196      8199      8198      8196      8199      8199      8202      8203
      8199      8202      8204      8199      8202      8205      8200      8199      8201
      8200      8199      8202      8201      8199      8202      8202      8205      8206
      8202      8205      8207      8202      8205      8208      8203      8202      8204
      8203      8202      8205      8204      8202      8205      8205      8208      8209
      8205      8208      8210      8205      8208      8211      8206      8205      8207
      8206      8205      8208      8207      8205      8208      8208      8211      8212
      8208      8211      8213      8208      8211      8214      8209      8208      8210
      8209      8208      8211      8210      8208      8211      8211      8214      8215
      8211      8214      8216      8211      8214      8217      8212      8211      8213
      8212      8211      8214      8213      8211      8214      8214      8217      8218
      8214      8217      8219      8214      8217      8220      8215      8214      8216
      8215      8214      8217      8216      8214      8217      8217      8220      8221
      8217      8220      8222      8217      8220      8223      8218      8217      8219
      8218      8217      8220      8219      8217      8220      8221      8220      8222
      8221      8220      8223      8222      8220      8223      8224      8225      8226
      8224      8225      8227      8224      8225      8228      8224      8229      8230
      8224      8229      8231      8224      8229      8232      8224      8233      8234
      8224      8233      8235      8224      8233      8236      8224      8237      8238
      8224      8237      8239      8224      8237      8240      8225      8224      8229
      8225      8224      8233      8225      8224      8237      8226      8225      8227
      8226      8225      8228      8227      8225      8228      8229      8224      8233
      8229      8224      8237      8230      8229      8231      8230      8229      8232
      8231      8229      8232      8233      8224      8237      8234      8233      8235
      8234      8233      8236      8235      8233      8236      8237      8240      8241
      8237      8240      8242      8237      8240      8247      8238      8237      8239
      8238      8237      8240      8239      8237      8240      8240      8247      8243
      8241      8240      8242      8241      8240      8247      8242      8240      8247
      8243      8246      8248      8244      8243      8245      8244      8243      8246
      8244      8243      8247      8245      8243      8246      8245      8243      8247
      8246      8243      8247      8246      8248      8249      8246      8248      8250
      8246      8248      8253      8248      8253      8251      8248      8253      8254
      8248      8253      8255      8249      8248      8250      8249      8248      8253
      8250      8248      8253      8251      8253      8254      8251      8253      8255
      8251      8303      8304      8251      8303      8305      8252      8251      8253
      8252      8251      8303      8253      8251      8303      8253      8255      8256
      8253      8255      8257      8253      8255      8259      8254      8253      8255
      8255      8257      8258      8255      8259      8260      8255      8259      8261
      8256      8255      8257      8256      8255      8259      8257      8255      8259
      8259      8261      8262      8259      8261      8263      8260      8259      8261
      8261      8263      8264      8261      8263      8265      8261      8263      8266
      8262      8261      8263      8263      8266      8267      8263      8266      8268
      8263      8266      8269      8264      8263      8265      8264      8263      8266
      8265      8263      8266      8266      8269      8270      8266      8269      8271
      8266      8269      8272      8267      8266      8268      8267      8266      8269
      8268      8266      8269      8269      8272      8273      8269      8272      8274
      8269      8272      8275      8270      8269      8271      8270      8269      8272
      8271      8269      8272      8272      8275      8276      8272      8275      8277
      8272      8275      8278      8273      8272      8274      8273      8272      8275
      8274      8272      8275      8275      8278      8279      8275      8278      8280
      8275      8278      8281      8276      8275      8277      8276      8275      8278
      8277      8275      8278      8278      8281      8282      8278      8281      8283
      8278      8281      8284      8279      8278      8280      8279      8278      8281
      8280      8278      8281      8281      8284      8285      8281      8284      8286
      8281      8284      8287      8282      8281      8283      8282      8281      8284
      8283      8281      8284      8284      8287      8288      8284      8287      8289
      8284      8287      8290      8285      8284      8286      8285      8284      8287
      8286      8284      8287      8287      8290      8291      8287      8290      8292
      8287      8290      8293      8288      8287      8289      8288      8287      8290
      8289      8287      8290      8290      8293      8294      8290      8293      8295
      8290      8293      8296      8291      8290      8292      8291      8290      8293
      8292      8290      8293      8293      8296      8297      8293      8296      8298
      8293      8296      8299      8294      8293      8295      8294      8293      8296
      8295      8293      8296      8296      8299      8300      8296      8299      8301
      8296      8299      8302      8297      8296      8298      8297      8296      8299
      8298      8296      8299      8300      8299      8301      8300      8299      8302
      8301      8299      8302      8303      8305      8306      8303      8305      8307
      8303      8305      8308      8304      8303      8305      8305      8308      8309
      8305      8308      8310      8305      8308      8311      8306      8305      8307
      8306      8305      8308      8307      8305      8308      8308      8311      8312
      8308      8311      8313      8308      8311      8314      8309      8308      8310
      8309      8308      8311      8310      8308      8311      8311      8314      8315
      8311      8314      8316      8311      8314      8317      8312      8311      8313
      8312      8311      8314      8313      8311      8314      8314      8317      8318
      8314      8317      8319      8314      8317      8320      8315      8314      8316
      8315      8314      8317      8316      8314      8317      8317      8320      8321
      8317      8320      8322      8317      8320      8323      8318      8317      8319
      8318      8317      8320      8319      8317      8320      8320      8323      8324
      8320      8323      8325      8320      8323      8326      8321      8320      8322
      8321      8320      8323      8322      8320      8323      8323      8326      8327
      8323      8326      8328      8324      8323      8325      8324      8323      8326
      8325      8323      8326      8326      8328      8329      8326      8328      8330
      8327      8326      8328      8328      8330      8331      8328      8330      8332
      8328      8330      8333      8329      8328      8330      8330      8333      8334
      8330      8333      8335      8330      8333      8336      8331      8330      8332
      8331      8330      8333      8332      8330      8333      8333      8336      8337
      8333      8336      8338      8333      8336      8339      8334      8333      8335
      8334      8333      8336      8335      8333      8336      8336      8339      8340
      8336      8339      8341      8336      8339      8342      8337      8336      8338
      8337      8336      8339      8338      8336      8339      8339      8342      8343
      8339      8342      8344      8339      8342      8345      8340      8339      8341
      8340      8339      8342      8341      8339      8342      8342      8345      8346
      8342      8345      8347      8342      8345      8348      8343      8342      8344
      8343      8342      8345      8344      8342      8345      8345      8348      8349
      8345      8348      8350      8345      8348      8351      8346      8345      8347
      8346      8345      8348      8347      8345      8348      8348      8351      8352
      8348      8351      8353      8348      8351      8354      8349      8348      8350
      8349      8348      8351      8350      8348      8351      8352      8351      8353
      8352      8351      8354      8353      8351      8354      8355      8359      8360
      8355      8359      8361      8355      8359      8362      8356      8355      8357
      8356      8355      8358      8356      8355      8359      8357      8355      8358
      8357      8355      8359      8358      8355      8359      8359      8362      8363
      8359      8362      8364      8359      8362      8368      8360      8359      8361
      8360      8359      8362      8361      8359      8362      8362      8368      8365
      8363      8362      8364      8363      8362      8368      8364      8362      8368
      8365      8369      8370      8366      8365      8367      8366      8365      8368
      8366      8365      8369      8367      8365      8368      8367      8365      8369
      8368      8365      8369      8369      8370      8371      8369      8370      8372
      8369      8370      8373      8370      8373      8374      8370      8373      8375
      8370      8373      8381      8371      8370      8372      8371      8370      8373
      8372      8370      8373      8373      8375      8376      8373      8381      8382
      8373      8381      8383      8373      8381      8384      8374      8373      8375
      8374      8373      8381      8375      8373      8381      8375      8376      8377
      8375      8376      8378      8376      8378      8379      8376      8378      8380
      8376      8378      8390      8377      8376      8378      8378      8390      8391
      8378      8390      8392      8378      8390      8393      8379      8378      8380
      8379      8378      8390      8380      8378      8390      8381      8384      8385
      8382      8381      8383      8382      8381      8384      8383      8381      8384
      8384      8385      8386      8384      8385      8387      8385      8387      8388
      8385      8387      8389      8385      8387      8437      8386      8385      8387
      8387      8437      8438      8387      8437      8439      8387      8437      8440
      8388      8387      8389      8388      8387      8437      8389      8387      8437
      8390      8393      8394      8390      8393      8395      8390      8393      8396
      8391      8390      8392      8391      8390      8393      8392      8390      8393
      8393      8396      8397      8393      8396      8398      8393      8396      8399
      8394      8393      8395      8394      8393      8396      8395      8393      8396
      8396      8399      8400      8396      8399      8401      8396      8399      8402
      8397      8396      8398      8397      8396      8399      8398      8396      8399
      8399      8402      8403      8399      8402      8404      8399      8402      8405
      8400      8399      8401      8400      8399      8402      8401      8399      8402
      8402      8405      8406      8402      8405      8407      8402      8405      8408
      8403      8402      8404      8403      8402      8405      8404      8402      8405
      8405      8408      8409      8405      8408      8410      8406      8405      8407
      8406      8405      8408      8407      8405      8408      8408      8410      8411
      8408      8410      8412      8409      8408      8410      8410      8412      8413
      8410      8412      8414      8410      8412      8415      8411      8410      8412
      8412      8415      8416      8412      8415      8417      8412      8415      8418
      8413      8412      8414      8413      8412      8415      8414      8412      8415
      8415      8418      8419      8415      8418      8420      8415      8418      8421
      8416      8415      8417      8416      8415      8418      8417      8415      8418
      8418      8421      8422      8418      8421      8423      8418      8421      8424
      8419      8418      8420      8419      8418      8421      8420      8418      8421
      8421      8424      8425      8421      8424      8426      8421      8424      8427
      8422      8421      8423      8422      8421      8424      8423      8421      8424
      8424      8427      8428      8424      8427      8429      8424      8427      8430
      8425      8424      8426      8425      8424      8427      8426      8424      8427
      8427      8430      8431      8427      8430      8432      8427      8430      8433
      8428      8427      8429      8428      8427      8430      8429      8427      8430
      8430      8433      8434      8430      8433      8435      8430      8433      8436
      8431      8430      8432      8431      8430      8433      8432      8430      8433
      8434      8433      8435      8434      8433      8436      8435      8433      8436
      8437      8440      8441      8437      8440      8442      8437      8440      8443
      8438      8437      8439      8438      8437      8440      8439      8437      8440
      8440      8443      8444      8440      8443      8445      8440      8443      8446
      8441      8440      8442      8441      8440      8443      8442      8440      8443
      8443      8446      8447      8443      8446      8448      8443      8446      8449
      8444      8443      8445      8444      8443      8446      8445      8443      8446
      8446      8449      8450      8446      8449      8451      8446      8449      8452
      8447      8446      8448      8447      8446      8449      8448      8446      8449
      8449      8452      8453      8449      8452      8454      8449      8452      8455
      8450      8449      8451      8450      8449      8452      8451      8449      8452
      8452      8455      8456      8452      8455      8457      8452      8455      8458
      8453      8452      8454      8453      8452      8455      8454      8452      8455
      8455      8458      8459      8455      8458      8460      8455      8458      8461
      8456      8455      8457      8456      8455      8458      8457      8455      8458
      8458      8461      8462      8458      8461      8463      8458      8461      8464
      8459      8458      8460      8459      8458      8461      8460      8458      8461
      8461      8464      8465      8461      8464      8466      8461      8464      8467
      8462      8461      8463      8462      8461      8464      8463      8461      8464
      8464      8467      8468      8464      8467      8469      8464      8467      8470
      8465      8464      8466      8465      8464      8467      8466      8464      8467
      8467      8470      8471      8467      8470      8472      8467      8470      8473
      8468      8467      8469      8468      8467      8470      8469      8467      8470
      8470      8473      8474      8470      8473      8475      8470      8473      8476
      8471      8470      8472      8471      8470      8473      8472      8470      8473
      8473      8476      8477      8473      8476      8478      8473      8476      8479
      8474      8473      8475      8474      8473      8476      8475      8473      8476
      8476      8479      8480      8476      8479      8481      8476      8479      8482
      8477      8476      8478      8477      8476      8479      8478      8476      8479
      8479      8482      8483      8479      8482      8484      8479      8482      8485
      8480      8479      8481      8480      8479      8482      8481      8479      8482
      8483      8482      8484      8483      8482      8485      8484      8482      8485
      8486      8487      8488      8486      8487      8489      8486      8487      8490
      8486      8491      8492      8486      8491      8493      8486      8491      8494
      8486      8495      8496      8486      8495      8497      8486      8495      8498
      8486      8499      8500      8486      8499      8501      8486      8499      8502
      8487      8486      8491      8487      8486      8495      8487      8486      8499
      8488      8487      8489      8488      8487      8490      8489      8487      8490
      8491      8486      8495      8491      8486      8499      8492      8491      8493
      8492      8491      8494      8493      8491      8494      8495      8486      8499
      8496      8495      8497      8496      8495      8498      8497      8495      8498
      8499      8502      8503      8499      8502      8504      8499      8502      8508
      8500      8499      8501      8500      8499      8502      8501      8499      8502
      8502      8508      8505      8503      8502      8504      8503      8502      8508
      8504      8502      8508      8505      8509      8510      8506      8505      8507
      8506      8505      8508      8506      8505      8509      8507      8505      8508
      8507      8505      8509      8508      8505      8509      8509      8510      8511
      8509      8510      8512      8509      8510      8513      8510      8513      8514
      8510      8513      8515      8510      8513      8521      8511      8510      8512
      8511      8510      8513      8512      8510      8513      8513      8515      8516
      8513      8521      8522      8513      8521      8523      8513      8521      8524
      8514      8513      8515      8514      8513      8521      8515      8513      8521
      8515      8516      8517      8515      8516      8518      8516      8518      8519
      8516      8518      8520      8516      8518      8530      8517      8516      8518
      8518      8530      8531      8518      8530      8532      8518      8530      8533
      8519      8518      8520      8519      8518      8530      8520      8518      8530
      8521      8524      8525      8522      8521      8523      8522      8521      8524
      8523      8521      8524      8524      8525      8526      8524      8525      8527
      8525      8527      8528      8525      8527      8529      8525      8527      8575
      8526      8525      8527      8527      8575      8576      8527      8575      8577
      8527      8575      8578      8528      8527      8529      8528      8527      8575
      8529      8527      8575      8530      8533      8534      8530      8533      8535
      8530      8533      8536      8531      8530      8532      8531      8530      8533
      8532      8530      8533      8533      8536      8537      8533      8536      8538
      8533      8536      8539      8534      8533      8535      8534      8533      8536
      8535      8533      8536      8536      8539      8540      8536      8539      8541
      8536      8539      8542      8537      8536      8538      8537      8536      8539
      8538      8536      8539      8539      8542      8543      8539      8542      8544
      8539      8542      8545      8540      8539      8541      8540      8539      8542
      8541      8539      8542      8542      8545      8546      8542      8545      8547
      8542      8545      8548      8543      8542      8544      8543      8542      8545
      8544      8542      8545      8545      8548      8549      8545      8548      8550
      8546      8545      8547      8546      8545      8548      8547      8545      8548
      8548      8550      8551      8548      8550      8552      8549      8548      8550
      8550      8552      8553      8550      8552      8554      8550      8552      8555
      8551      8550      8552      8552      8555      8556      8552      8555      8557
      8553      8552      8554      8553      8552      8555      8554      8552      8555
      8555      8557      8558      8555      8557      8559      8556      8555      8557
      8557      8559      8560      8557      8559      8561      8557      8559      8562
      8558      8557      8559      8559      8562      8563      8559      8562      8564
      8559      8562      8565      8560      8559      8561      8560      8559      8562
      8561      8559      8562      8562      8565      8566      8562      8565      8567
      8562      8565      8568      8563      8562      8564      8563      8562      8565
      8564      8562      8565      8565      8568      8569      8565      8568      8570
      8565      8568      8571      8566      8565      8567      8566      8565      8568
      8567      8565      8568      8568      8571      8572      8568      8571      8573
      8568      8571      8574      8569      8568      8570      8569      8568      8571
      8570      8568      8571      8572      8571      8573      8572      8571      8574
      8573      8571      8574      8575      8578      8579      8575      8578      8580
      8575      8578      8581      8576      8575      8577      8576      8575      8578
      8577      8575      8578      8578      8581      8582      8578      8581      8583
      8578      8581      8584      8579      8578      8580      8579      8578      8581
      8580      8578      8581      8581      8584      8585      8581      8584      8586
      8581      8584      8587      8582      8581      8583      8582      8581      8584
      8583      8581      8584      8584      8587      8588      8584      8587      8589
      8584      8587      8590      8585      8584      8586      8585      8584      8587
      8586      8584      8587      8587      8590      8591      8587      8590      8592
      8587      8590      8593      8588      8587      8589      8588      8587      8590
      8589      8587      8590      8590      8593      8594      8590      8593      8595
      8590      8593      8596      8591      8590      8592      8591      8590      8593
      8592      8590      8593      8593      8596      8597      8593      8596      8598
      8593      8596      8599      8594      8593      8595      8594      8593      8596
      8595      8593      8596      8596      8599      8600      8596      8599      8601
      8596      8599      8602      8597      8596      8598      8597      8596      8599
      8598      8596      8599      8599      8602      8603      8599      8602      8604
      8599      8602      8605      8600      8599      8601      8600      8599      8602
      8601      8599      8602      8602      8605      8606      8602      8605      8607
      8602      8605      8608      8603      8602      8604      8603      8602      8605
      8604      8602      8605      8605      8608      8609      8605      8608      8610
      8605      8608      8611      8606      8605      8607      8606      8605      8608
      8607      8605      8608      8608      8611      8612      8608      8611      8613
      8608      8611      8614      8609      8608      8610      8609      8608      8611
      8610      8608      8611      8611      8614      8615      8611      8614      8616
      8611      8614      8617      8612      8611      8613      8612      8611      8614
      8613      8611      8614      8614      8617      8618      8614      8617      8619
      8614      8617      8620      8615      8614      8616      8615      8614      8617
      8616      8614      8617      8617      8620      8621      8617      8620      8622
      8617      8620      8623      8618      8617      8619      8618      8617      8620
      8619      8617      8620      8621      8620      8622      8621      8620      8623
      8622      8620      8623      8624      8628      8629      8624      8628      8630
      8624      8628      8631      8625      8624      8626      8625      8624      8627
      8625      8624      8628      8626      8624      8627      8626      8624      8628
      8627      8624      8628      8628      8631      8632      8628      8631      8633
      8628      8631      8637      8629      8628      8630      8629      8628      8631
      8630      8628      8631      8631      8637      8634      8632      8631      8633
      8632      8631      8637      8633      8631      8637      8634      8638      8639
      8635      8634      8636      8635      8634      8637      8635      8634      8638
      8636      8634      8637      8636      8634      8638      8637      8634      8638
      8638      8639      8640      8638      8639      8641      8638      8639      8642
      8639      8642      8643      8639      8642      8644      8639      8642      8650
      8640      8639      8641      8640      8639      8642      8641      8639      8642
      8642      8644      8645      8642      8650      8651      8642      8650      8652
      8642      8650      8653      8643      8642      8644      8643      8642      8650
      8644      8642      8650      8644      8645      8646      8644      8645      8647
      8645      8647      8648      8645      8647      8649      8645      8647      8659
      8646      8645      8647      8647      8659      8660      8647      8659      8661
      8647      8659      8662      8648      8647      8649      8648      8647      8659
      8649      8647      8659      8650      8653      8654      8651      8650      8652
      8651      8650      8653      8652      8650      8653      8653      8654      8655
      8653      8654      8656      8654      8656      8657      8654      8656      8658
      8654      8656      8706      8655      8654      8656      8656      8706      8707
      8656      8706      8708      8656      8706      8709      8657      8656      8658
      8657      8656      8706      8658      8656      8706      8659      8662      8663
      8659      8662      8664      8659      8662      8665      8660      8659      8661
      8660      8659      8662      8661      8659      8662      8662      8665      8666
      8662      8665      8667      8663      8662      8664      8663      8662      8665
      8664      8662      8665      8665      8667      8668      8665      8667      8669
      8666      8665      8667      8667      8669      8670      8667      8669      8671
      8667      8669      8672      8668      8667      8669      8669      8672      8673
      8669      8672      8674      8670      8669      8671      8670      8669      8672
      8671      8669      8672      8672      8674      8675      8672      8674      8676
      8673      8672      8674      8674      8676      8677      8674      8676      8678
      8674      8676      8679      8675      8674      8676      8676      8679      8680
      8676      8679      8681      8677      8676      8678      8677      8676      8679
      8678      8676      8679      8679      8681      8682      8679      8681      8683
      8680      8679      8681      8681      8683      8684      8681      8683      8685
      8681      8683      8686      8682      8681      8683      8683      8686      8687
      8683      8686      8688      8684      8683      8685      8684      8683      8686
      8685      8683      8686      8686      8688      8689      8686      8688      8690
      8687      8686      8688      8688      8690      8691      8688      8690      8692
      8688      8690      8693      8689      8688      8690      8690      8693      8694
      8690      8693      8695      8690      8693      8696      8691      8690      8692
      8691      8690      8693      8692      8690      8693      8693      8696      8697
      8693      8696      8698      8693      8696      8699      8694      8693      8695
      8694      8693      8696      8695      8693      8696      8696      8699      8700
      8696      8699      8701      8696      8699      8702      8697      8696      8698
      8697      8696      8699      8698      8696      8699      8699      8702      8703
      8699      8702      8704      8699      8702      8705      8700      8699      8701
      8700      8699      8702      8701      8699      8702      8703      8702      8704
      8703      8702      8705      8704      8702      8705      8706      8709      8710
      8706      8709      8711      8706      8709      8712      8707      8706      8708
      8707      8706      8709      8708      8706      8709      8709      8712      8713
      8709      8712      8714      8709      8712      8715      8710      8709      8711
      8710      8709      8712      8711      8709      8712      8712      8715      8716
      8712      8715      8717      8712      8715      8718      8713      8712      8714
      8713      8712      8715      8714      8712      8715      8715      8718      8719
      8715      8718      8720      8715      8718      8721      8716      8715      8717
      8716      8715      8718      8717      8715      8718      8718      8721      8722
      8718      8721      8723      8718      8721      8724      8719      8718      8720
      8719      8718      8721      8720      8718      8721      8721      8724      8725
      8721      8724      8726      8721      8724      8727      8722      8721      8723
      8722      8721      8724      8723      8721      8724      8724      8727      8728
      8724      8727      8729      8724      8727      8730      8725      8724      8726
      8725      8724      8727      8726      8724      8727      8727      8730      8731
      8727      8730      8732      8727      8730      8733      8728      8727      8729
      8728      8727      8730      8729      8727      8730      8730      8733      8734
      8730      8733      8735      8730      8733      8736      8731      8730      8732
      8731      8730      8733      8732      8730      8733      8733      8736      8737
      8733      8736      8738      8733      8736      8739      8734      8733      8735
      8734      8733      8736      8735      8733      8736      8736      8739      8740
      8736      8739      8741      8736      8739      8742      8737      8736      8738
      8737      8736      8739      8738      8736      8739      8739      8742      8743
      8739      8742      8744      8739      8742      8745      8740      8739      8741
      8740      8739      8742      8741      8739      8742      8742      8745      8746
      8742      8745      8747      8742      8745      8748      8743      8742      8744
      8743      8742      8745      8744      8742      8745      8745      8748      8749
      8745      8748      8750      8745      8748      8751      8746      8745      8747
      8746      8745      8748      8747      8745      8748      8748      8751      8752
      8748      8751      8753      8748      8751      8754      8749      8748      8750
      8749      8748      8751      8750      8748      8751      8752      8751      8753
      8752      8751      8754      8753      8751      8754      8755      8759      8760
      8755      8759      8761      8755      8759      8764      8756      8755      8757
      8756      8755      8758      8756      8755      8759      8757      8755      8758
      8757      8755      8759      8758      8755      8759      8759      8761      8762
      8759      8761      8763      8759      8764      8765      8759      8764      8766
      8759      8764      8770      8760      8759      8761      8760      8759      8764
      8761      8759      8764      8762      8761      8763      8764      8770      8767
      8765      8764      8766      8765      8764      8770      8766      8764      8770
      8767      8771      8772      8768      8767      8769      8768      8767      8770
      8768      8767      8771      8769      8767      8770      8769      8767      8771
      8770      8767      8771      8771      8772      8773      8771      8772      8774
      8771      8772      8775      8772      8775      8776      8772      8775      8777
      8772      8775      8783      8773      8772      8774      8773      8772      8775
      8774      8772      8775      8775      8777      8778      8775      8783      8784
      8775      8783      8785      8775      8783      8786      8776      8775      8777
      8776      8775      8783      8777      8775      8783      8777      8778      8779
      8777      8778      8780      8778      8780      8781      8778      8780      8782
      8778      8780      8792      8779      8778      8780      8780      8792      8793
      8780      8792      8794      8780      8792      8795      8781      8780      8782
      8781      8780      8792      8782      8780      8792      8783      8786      8787
      8784      8783      8785      8784      8783      8786      8785      8783      8786
      8786      8787      8788      8786      8787      8789      8787      8789      8790
      8787      8789      8791      8787      8789      8839      8788      8787      8789
      8789      8839      8840      8789      8839      8841      8789      8839      8842
      8790      8789      8791      8790      8789      8839      8791      8789      8839
      8792      8795      8796      8792      8795      8797      8792      8795      8798
      8793      8792      8794      8793      8792      8795      8794      8792      8795
      8795      8798      8799      8795      8798      8800      8796      8795      8797
      8796      8795      8798      8797      8795      8798      8798      8800      8801
      8798      8800      8802      8799      8798      8800      8800      8802      8803
      8800      8802      8804      8800      8802      8805      8801      8800      8802
      8802      8805      8806      8802      8805      8807      8803      8802      8804
      8803      8802      8805      8804      8802      8805      8805      8807      8808
      8805      8807      8809      8806      8805      8807      8807      8809      8810
      8807      8809      8811      8807      8809      8812      8808      8807      8809
      8809      8812      8813      8809      8812      8814      8810      8809      8811
      8810      8809      8812      8811      8809      8812      8812      8814      8815
      8812      8814      8816      8813      8812      8814      8814      8816      8817
      8814      8816      8818      8814      8816      8819      8815      8814      8816
      8816      8819      8820      8816      8819      8821      8817      8816      8818
      8817      8816      8819      8818      8816      8819      8819      8821      8822
      8819      8821      8823      8820      8819      8821      8821      8823      8824
      8821      8823      8825      8821      8823      8826      8822      8821      8823
      8823      8826      8827      8823      8826      8828      8823      8826      8829
      8824      8823      8825      8824      8823      8826      8825      8823      8826
      8826      8829      8830      8826      8829      8831      8826      8829      8832
      8827      8826      8828      8827      8826      8829      8828      8826      8829
      8829      8832      8833      8829      8832      8834      8829      8832      8835
      8830      8829      8831      8830      8829      8832      8831      8829      8832
      8832      8835      8836      8832      8835      8837      8832      8835      8838
      8833      8832      8834      8833      8832      8835      8834      8832      8835
      8836      8835      8837      8836      8835      8838      8837      8835      8838
      8839      8842      8843      8839      8842      8844      8839      8842      8845
      8840      8839      8841      8840      8839      8842      8841      8839      8842
      8842      8845      8846      8842      8845      8847      8842      8845      8848
      8843      8842      8844      8843      8842      8845      8844      8842      8845
      8845      8848      8849      8845      8848      8850      8845      8848      8851
      8846      8845      8847      8846      8845      8848      8847      8845      8848
      8848      8851      8852      8848      8851      8853      8848      8851      8854
      8849      8848      8850      8849      8848      8851      8850      8848      8851
      8851      8854      8855      8851      8854      8856      8851      8854      8857
      8852      8851      8853      8852      8851      8854      8853      8851      8854
      8854      8857      8858      8854      8857      8859      8854      8857      8860
      8855      8854      8856      8855      8854      8857      8856      8854      8857
      8857      8860      8861      8857      8860      8862      8857      8860      8863
      8858      8857      8859      8858      8857      8860      8859      8857      8860
      8860      8863      8864      8860      8863      8865      8860      8863      8866
      8861      8860      8862      8861      8860      8863      8862      8860      8863
      8863      8866      8867      8863      8866      8868      8863      8866      8869
      8864      8863      8865      8864      8863      8866      8865      8863      8866
      8866      8869      8870      8866      8869      8871      8866      8869      8872
      8867      8866      8868      8867      8866      8869      8868      8866      8869
      8869      8872      8873      8869      8872      8874      8869      8872      8875
      8870      8869      8871      8870      8869      8872      8871      8869      8872
      8872      8875      8876      8872      8875      8877      8872      8875      8878
      8873      8872      8874      8873      8872      8875      8874      8872      8875
      8875      8878      8879      8875      8878      8880      8875      8878      8881
      8876      8875      8877      8876      8875      8878      8877      8875      8878
      8878      8881      8882      8878      8881      8883      8878      8881      8884
      8879      8878      8880      8879      8878      8881      8880      8878      8881
      8881      8884      8885      8881      8884      8886      8881      8884      8887
      8882      8881      8883      8882      8881      8884      8883      8881      8884
      8885      8884      8886      8885      8884      8887      8886      8884      8887
      8888      8892      8893      8888      8892      8894      8888      8892      8897
      8889      8888      8890      8889      8888      8891      8889      8888      8892
      8890      8888      8891      8890      8888      8892      8891      8888      8892
      8892      8894      8895      8892      8894      8896      8892      8897      8898
      8892      8897      8899      8892      8897      8903      8893      8892      8894
      8893      8892      8897      8894      8892      8897      8895      8894      8896
      8897      8903      8900      8898      8897      8899      8898      8897      8903
      8899      8897      8903      8900      8904      8905      8901      8900      8902
      8901      8900      8903      8901      8900      8904      8902      8900      8903
      8902      8900      8904      8903      8900      8904      8904      8905      8906
      8904      8905      8907      8904      8905      8908      8905      8908      8909
      8905      8908      8910      8905      8908      8916      8906      8905      8907
      8906      8905      8908      8907      8905      8908      8908      8910      8911
      8908      8916      8917      8908      8916      8918      8908      8916      8919
      8909      8908      8910      8909      8908      8916      8910      8908      8916
      8910      8911      8912      8910      8911      8913      8911      8913      8914
      8911      8913      8915      8911      8913      8925      8912      8911      8913
      8913      8925      8926      8913      8925      8927      8913      8925      8928
      8914      8913      8915      8914      8913      8925      8915      8913      8925
      8916      8919      8920      8917      8916      8918      8917      8916      8919
      8918      8916      8919      8919      8920      8921      8919      8920      8922
      8920      8922      8923      8920      8922      8924      8920      8922      8972
      8921      8920      8922      8922      8972      8973      8922      8972      8974
      8922      8972      8975      8923      8922      8924      8923      8922      8972
      8924      8922      8972      8925      8928      8929      8925      8928      8930
      8925      8928      8931      8926      8925      8927      8926      8925      8928
      8927      8925      8928      8928      8931      8932      8928      8931      8933
      8929      8928      8930      8929      8928      8931      8930      8928      8931
      8931      8933      8934      8931      8933      8935      8932      8931      8933
      8933      8935      8936      8933      8935      8937      8933      8935      8938
      8934      8933      8935      8935      8938      8939      8935      8938      8940
      8936      8935      8937      8936      8935      8938      8937      8935      8938
      8938      8940      8941      8938      8940      8942      8939      8938      8940
      8940      8942      8943      8940      8942      8944      8940      8942      8945
      8941      8940      8942      8942      8945      8946      8942      8945      8947
      8943      8942      8944      8943      8942      8945      8944      8942      8945
      8945      8947      8948      8945      8947      8949      8946      8945      8947
      8947      8949      8950      8947      8949      8951      8947      8949      8952
      8948      8947      8949      8949      8952      8953      8949      8952      8954
      8950      8949      8951      8950      8949      8952      8951      8949      8952
      8952      8954      8955      8952      8954      8956      8953      8952      8954
      8954      8956      8957      8954      8956      8958      8954      8956      8959
      8955      8954      8956      8956      8959      8960      8956      8959      8961
      8956      8959      8962      8957      8956      8958      8957      8956      8959
      8958      8956      8959      8959      8962      8963      8959      8962      8964
      8959      8962      8965      8960      8959      8961      8960      8959      8962
      8961      8959      8962      8962      8965      8966      8962      8965      8967
      8962      8965      8968      8963      8962      8964      8963      8962      8965
      8964      8962      8965      8965      8968      8969      8965      8968      8970
      8965      8968      8971      8966      8965      8967      8966      8965      8968
      8967      8965      8968      8969      8968      8970      8969      8968      8971
      8970      8968      8971      8972      8975      8976      8972      8975      8977
      8972      8975      8978      8973      8972      8974      8973      8972      8975
      8974      8972      8975      8975      8978      8979      8975      8978      8980
      8975      8978      8981      8976      8975      8977      8976      8975      8978
      8977      8975      8978      8978      8981      8982      8978      8981      8983
      8978      8981      8984      8979      8978      8980      8979      8978      8981
      8980      8978      8981      8981      8984      8985      8981      8984      8986
      8981      8984      8987      8982      8981      8983      8982      8981      8984
      8983      8981      8984      8984      8987      8988      8984      8987      8989
      8984      8987      8990      8985      8984      8986      8985      8984      8987
      8986      8984      8987      8987      8990      8991      8987      8990      8992
      8987      8990      8993      8988      8987      8989      8988      8987      8990
      8989      8987      8990      8990      8993      8994      8990      8993      8995
      8990      8993      8996      8991      8990      8992      8991      8990      8993
      8992      8990      8993      8993      8996      8997      8993      8996      8998
      8993      8996      8999      8994      8993      8995      8994      8993      8996
      8995      8993      8996      8996      8999      9000      8996      8999      9001
      8996      8999      9002      8997      8996      8998      8997      8996      8999
      8998      8996      8999      8999      9002      9003      8999      9002      9004
      8999      9002      9005      9000      8999      9001      9000      8999      9002
      9001      8999      9002      9002      9005      9006      9002      9005      9007
      9002      9005      9008      9003      9002      9004      9003      9002      9005
      9004      9002      9005      9005      9008      9009      9005      9008      9010
      9005      9008      9011      9006      9005      9007      9006      9005      9008
      9007      9005      9008      9008      9011      9012      9008      9011      9013
      9008      9011      9014      9009      9008      9010      9009      9008      9011
      9010      9008      9011      9011      9014      9015      9011      9014      9016
      9011      9014      9017      9012      9011      9013      9012      9011      9014
      9013      9011      9014      9014      9017      9018      9014      9017      9019
      9014      9017      9020      9015      9014      9016      9015      9014      9017
      9016      9014      9017      9018      9017      9019      9018      9017      9020
      9019      9017      9020      9021      9022      9023      9021      9022      9024
      9021      9022      9037      9021      9025      9026      9021      9025      9027
      9021      9025      9028      9021      9029      9030      9021      9029      9031
      9021      9029      9032      9021      9033      9034      9021      9033      9035
      9021      9033      9036      9022      9021      9025      9022      9021      9029
      9022      9021      9033      9022      9037      9038      9022      9037      9039
      9022      9037      9043      9023      9022      9024      9023      9022      9037
      9024      9022      9037      9025      9021      9029      9025      9021      9033
      9026      9025      9027      9026      9025      9028      9027      9025      9028
      9029      9021      9033      9030      9029      9031      9030      9029      9032
      9031      9029      9032      9034      9033      9035      9034      9033      9036
      9035      9033      9036      9037      9043      9040      9038      9037      9039
      9038      9037      9043      9039      9037      9043      9040      9044      9045
      9041      9040      9042      9041      9040      9043      9041      9040      9044
      9042      9040      9043      9042      9040      9044      9043      9040      9044
      9044      9045      9046      9044      9045      9047      9044      9045      9048
      9045      9048      9049      9045      9048      9050      9045      9048      9056
      9046      9045      9047      9046      9045      9048      9047      9045      9048
      9048      9050      9051      9048      9056      9057      9048      9056      9058
      9048      9056      9059      9049      9048      9050      9049      9048      9056
      9050      9048      9056      9050      9051      9052      9050      9051      9053
      9051      9053      9054      9051      9053      9055      9051      9053      9065
      9052      9051      9053      9053      9065      9066      9053      9065      9067
      9053      9065      9068      9054      9053      9055      9054      9053      9065
      9055      9053      9065      9056      9059      9060      9057      9056      9058
      9057      9056      9059      9058      9056      9059      9059      9060      9061
      9059      9060      9062      9060      9062      9063      9060      9062      9064
      9060      9062      9112      9061      9060      9062      9062      9112      9113
      9062      9112      9114      9062      9112      9115      9063      9062      9064
      9063      9062      9112      9064      9062      9112      9065      9068      9069
      9065      9068      9070      9065      9068      9071      9066      9065      9067
      9066      9065      9068      9067      9065      9068      9068      9071      9072
      9068      9071      9073      9069      9068      9070      9069      9068      9071
      9070      9068      9071      9071      9073      9074      9071      9073      9075
      9072      9071      9073      9073      9075      9076      9073      9075      9077
      9073      9075      9078      9074      9073      9075      9075      9078      9079
      9075      9078      9080      9076      9075      9077      9076      9075      9078
      9077      9075      9078      9078      9080      9081      9078      9080      9082
      9079      9078      9080      9080      9082      9083      9080      9082      9084
      9080      9082      9085      9081      9080      9082      9082      9085      9086
      9082      9085      9087      9083      9082      9084      9083      9082      9085
      9084      9082      9085      9085      9087      9088      9085      9087      9089
      9086      9085      9087      9087      9089      9090      9087      9089      9091
      9087      9089      9092      9088      9087      9089      9089      9092      9093
      9089      9092      9094      9090      9089      9091      9090      9089      9092
      9091      9089      9092      9092      9094      9095      9092      9094      9096
      9093      9092      9094      9094      9096      9097      9094      9096      9098
      9094      9096      9099      9095      9094      9096      9096      9099      9100
      9096      9099      9101      9096      9099      9102      9097      9096      9098
      9097      9096      9099      9098      9096      9099      9099      9102      9103
      9099      9102      9104      9099      9102      9105      9100      9099      9101
      9100      9099      9102      9101      9099      9102      9102      9105      9106
      9102      9105      9107      9102      9105      9108      9103      9102      9104
      9103      9102      9105      9104      9102      9105      9105      9108      9109
      9105      9108      9110      9105      9108      9111      9106      9105      9107
      9106      9105      9108      9107      9105      9108      9109      9108      9110
      9109      9108      9111      9110      9108      9111      9112      9115      9116
      9112      9115      9117      9112      9115      9118      9113      9112      9114
      9113      9112      9115      9114      9112      9115      9115      9118      9119
      9115      9118      9120      9115      9118      9121      9116      9115      9117
      9116      9115      9118      9117      9115      9118      9118      9121      9122
      9118      9121      9123      9118      9121      9124      9119      9118      9120
      9119      9118      9121      9120      9118      9121      9121      9124      9125
      9121      9124      9126      9121      9124      9127      9122      9121      9123
      9122      9121      9124      9123      9121      9124      9124      9127      9128
      9124      9127      9129      9124      9127      9130      9125      9124      9126
      9125      9124      9127      9126      9124      9127      9127      9130      9131
      9127      9130      9132      9127      9130      9133      9128      9127      9129
      9128      9127      9130      9129      9127      9130      9130      9133      9134
      9130      9133      9135      9130      9133      9136      9131      9130      9132
      9131      9130      9133      9132      9130      9133      9133      9136      9137
      9133      9136      9138      9133      9136      9139      9134      9133      9135
      9134      9133      9136      9135      9133      9136      9136      9139      9140
      9136      9139      9141      9136      9139      9142      9137      9136      9138
      9137      9136      9139      9138      9136      9139      9139      9142      9143
      9139      9142      9144      9139      9142      9145      9140      9139      9141
      9140      9139      9142      9141      9139      9142      9142      9145      9146
      9142      9145      9147      9142      9145      9148      9143      9142      9144
      9143      9142      9145      9144      9142      9145      9145      9148      9149
      9145      9148      9150      9145      9148      9151      9146      9145      9147
      9146      9145      9148      9147      9145      9148      9148      9151      9152
      9148      9151      9153      9148      9151      9154      9149      9148      9150
      9149      9148      9151      9150      9148      9151      9151      9154      9155
      9151      9154      9156      9151      9154      9157      9152      9151      9153
      9152      9151      9154      9153      9151      9154      9154      9157      9158
      9154      9157      9159      9154      9157      9160      9155      9154      9156
      9155      9154      9157      9156      9154      9157      9158      9157      9159
      9158      9157      9160      9159      9157      9160      9161      9162      9163
      9161      9162      9164      9161      9162      9165      9161      9166      9167
      9161      9166      9168      9161      9166      9169      9161      9170      9171
      9161      9170      9172      9161      9170      9173      9161      9174      9175
      9161      9174      9176      9161      9174      9177      9162      9161      9166
      9162      9161      9170      9162      9161      9174      9163      9162      9164
      9163      9162      9165      9164      9162      9165      9166      9161      9170
      9166      9161      9174      9167      9166      9168      9167      9166      9169
      9168      9166      9169      9170      9161      9174      9171      9170      9172
      9171      9170      9173      9172      9170      9173      9174      9177      9178
      9174      9177      9179      9174      9177      9184      9175      9174      9176
      9175      9174      9177      9176      9174      9177      9177      9184      9180
      9178      9177      9179      9178      9177      9184      9179      9177      9184
      9180      9183      9185      9181      9180      9182      9181      9180      9183
      9181      9180      9184      9182      9180      9183      9182      9180      9184
      9183      9180      9184      9183      9185      9186      9183      9185      9187
      9183      9185      9190      9185      9190      9188      9185      9190      9191
      9185      9190      9192      9186      9185      9187      9186      9185      9190
      9187      9185      9190      9188      9190      9191      9188      9190      9192
      9188      9240      9241      9188      9240      9242      9189      9188      9190
      9189      9188      9240      9190      9188      9240      9190      9192      9193
      9190      9192      9194      9190      9192      9196      9191      9190      9192
      9192      9194      9195      9192      9196      9197      9192      9196      9198
      9193      9192      9194      9193      9192      9196      9194      9192      9196
      9196      9198      9199      9196      9198      9200      9197      9196      9198
      9198      9200      9201      9198      9200      9202      9198      9200      9203
      9199      9198      9200      9200      9203      9204      9200      9203      9205
      9200      9203      9206      9201      9200      9202      9201      9200      9203
      9202      9200      9203      9203      9206      9207      9203      9206      9208
      9203      9206      9209      9204      9203      9205      9204      9203      9206
      9205      9203      9206      9206      9209      9210      9206      9209      9211
      9206      9209      9212      9207      9206      9208      9207      9206      9209
      9208      9206      9209      9209      9212      9213      9209      9212      9214
      9209      9212      9215      9210      9209      9211      9210      9209      9212
      9211      9209      9212      9212      9215      9216      9212      9215      9217
      9212      9215      9218      9213      9212      9214      9213      9212      9215
      9214      9212      9215      9215      9218      9219      9215      9218      9220
      9215      9218      9221      9216      9215      9217      9216      9215      9218
      9217      9215      9218      9218      9221      9222      9218      9221      9223
      9218      9221      9224      9219      9218      9220      9219      9218      9221
      9220      9218      9221      9221      9224      9225      9221      9224      9226
      9221      9224      9227      9222      9221      9223      9222      9221      9224
      9223      9221      9224      9224      9227      9228      9224      9227      9229
      9224      9227      9230      9225      9224      9226      9225      9224      9227
      9226      9224      9227      9227      9230      9231      9227      9230      9232
      9227      9230      9233      9228      9227      9229      9228      9227      9230
      9229      9227      9230      9230      9233      9234      9230      9233      9235
      9230      9233      9236      9231      9230      9232      9231      9230      9233
      9232      9230      9233      9233      9236      9237      9233      9236      9238
      9233      9236      9239      9234      9233      9235      9234      9233      9236
      9235      9233      9236      9237      9236      9238      9237      9236      9239
      9238      9236      9239      9240      9242      9243      9240      9242      9244
      9240      9242      9245      9241      9240      9242      9242      9245      9246
      9242      9245      9247      9242      9245      9248      9243      9242      9244
      9243      9242      9245      9244      9242      9245      9245      9248      9249
      9245      9248      9250      9245      9248      9251      9246      9245      9247
      9246      9245      9248      9247      9245      9248      9248      9251      9252
      9248      9251      9253      9248      9251      9254      9249      9248      9250
      9249      9248      9251      9250      9248      9251      9251      9254      9255
      9251      9254      9256      9251      9254      9257      9252      9251      9253
      9252      9251      9254      9253      9251      9254      9254      9257      9258
      9254      9257      9259      9254      9257      9260      9255      9254      9256
      9255      9254      9257      9256      9254      9257      9257      9260      9261
      9257      9260      9262      9257      9260      9263      9258      9257      9259
      9258      9257      9260      9259      9257      9260      9260      9263      9264
      9260      9263      9265      9261      9260      9262      9261      9260      9263
      9262      9260      9263      9263      9265      9266      9263      9265      9267
      9264      9263      9265      9265      9267      9268      9265      9267      9269
      9265      9267      9270      9266      9265      9267      9267      9270      9271
      9267      9270      9272      9267      9270      9273      9268      9267      9269
      9268      9267      9270      9269      9267      9270      9270      9273      9274
      9270      9273      9275      9270      9273      9276      9271      9270      9272
      9271      9270      9273      9272      9270      9273      9273      9276      9277
      9273      9276      9278      9273      9276      9279      9274      9273      9275
      9274      9273      9276      9275      9273      9276      9276      9279      9280
      9276      9279      9281      9276      9279      9282      9277      9276      9278
      9277      9276      9279      9278      9276      9279      9279      9282      9283
      9279      9282      9284      9279      9282      9285      9280      9279      9281
      9280      9279      9282      9281      9279      9282      9282      9285      9286
      9282      9285      9287      9282      9285      9288      9283      9282      9284
      9283      9282      9285      9284      9282      9285      9285      9288      9289
      9285      9288      9290      9285      9288      9291      9286      9285      9287
      9286      9285      9288      9287      9285      9288      9289      9288      9290
      9289      9288      9291      9290      9288      9291      9292      9296      9297
      9292      9296      9298      9292      9296      9299      9293      9292      9294
      9293      9292      9295      9293      9292      9296      9294      9292      9295
      9294      9292      9296      9295      9292      9296      9296      9299      9300
      9296      9299      9301      9296      9299      9305      9297      9296      9298
      9297      9296      9299      9298      9296      9299      9299      9305      9302
      9300      9299      9301      9300      9299      9305      9301      9299      9305
      9302      9306      9307      9303      9302      9304      9303      9302      9305
      9303      9302      9306      9304      9302      9305      9304      9302      9306
      9305      9302      9306      9306      9307      9308      9306      9307      9309
      9306      9307      9310      9307      9310      9311      9307      9310      9312
      9307      9310      9318      9308      9307      9309      9308      9307      9310
      9309      9307      9310      9310      9312      9313      9310      9318      9319
      9310      9318      9320      9310      9318      9321      9311      9310      9312
      9311      9310      9318      9312      9310      9318      9312      9313      9314
      9312      9313      9315      9313      9315      9316      9313      9315      9317
      9313      9315      9327      9314      9313      9315      9315      9327      9328
      9315      9327      9329      9315      9327      9330      9316      9315      9317
      9316      9315      9327      9317      9315      9327      9318      9321      9322
      9319      9318      9320      9319      9318      9321      9320      9318      9321
      9321      9322      9323      9321      9322      9324      9322      9324      9325
      9322      9324      9326      9322      9324      9374      9323      9322      9324
      9324      9374      9375      9324      9374      9376      9324      9374      9377
      9325      9324      9326      9325      9324      9374      9326      9324      9374
      9327      9330      9331      9327      9330      9332      9327      9330      9333
      9328      9327      9329      9328      9327      9330      9329      9327      9330
      9330      9333      9334      9330      9333      9335      9331      9330      9332
      9331      9330      9333      9332      9330      9333      9333      9335      9336
      9333      9335      9337      9334      9333      9335      9335      9337      9338
      9335      9337      9339      9335      9337      9340      9336      9335      9337
      9337      9340      9341      9337      9340      9342      9338      9337      9339
      9338      9337      9340      9339      9337      9340      9340      9342      9343
      9340      9342      9344      9341      9340      9342      9342      9344      9345
      9342      9344      9346      9342      9344      9347      9343      9342      9344
      9344      9347      9348      9344      9347      9349      9345      9344      9346
      9345      9344      9347      9346      9344      9347      9347      9349      9350
      9347      9349      9351      9348      9347      9349      9349      9351      9352
      9349      9351      9353      9349      9351      9354      9350      9349      9351
      9351      9354      9355      9351      9354      9356      9352      9351      9353
      9352      9351      9354      9353      9351      9354      9354      9356      9357
      9354      9356      9358      9355      9354      9356      9356      9358      9359
      9356      9358      9360      9356      9358      9361      9357      9356      9358
      9358      9361      9362      9358      9361      9363      9358      9361      9364
      9359      9358      9360      9359      9358      9361      9360      9358      9361
      9361      9364      9365      9361      9364      9366      9361      9364      9367
      9362      9361      9363      9362      9361      9364      9363      9361      9364
      9364      9367      9368      9364      9367      9369      9364      9367      9370
      9365      9364      9366      9365      9364      9367      9366      9364      9367
      9367      9370      9371      9367      9370      9372      9367      9370      9373
      9368      9367      9369      9368      9367      9370      9369      9367      9370
      9371      9370      9372      9371      9370      9373      9372      9370      9373
      9374      9377      9378      9374      9377      9379      9374      9377      9380
      9375      9374      9376      9375      9374      9377      9376      9374      9377
      9377      9380      9381      9377      9380      9382      9377      9380      9383
      9378      9377      9379      9378      9377      9380      9379      9377      9380
      9380      9383      9384      9380      9383      9385      9380      9383      9386
      9381      9380      9382      9381      9380      9383      9382      9380      9383
      9383      9386      9387      9383      9386      9388      9383      9386      9389
      9384      9383      9385      9384      9383      9386      9385      9383      9386
      9386      9389      9390      9386      9389      9391      9386      9389      9392
      9387      9386      9388      9387      9386      9389      9388      9386      9389
      9389      9392      9393      9389      9392      9394      9389      9392      9395
      9390      9389      9391      9390      9389      9392      9391      9389      9392
      9392      9395      9396      9392      9395      9397      9392      9395      9398
      9393      9392      9394      9393      9392      9395      9394      9392      9395
      9395      9398      9399      9395      9398      9400      9395      9398      9401
      9396      9395      9397      9396      9395      9398      9397      9395      9398
      9398      9401      9402      9398      9401      9403      9398      9401      9404
      9399      9398      9400      9399      9398      9401      9400      9398      9401
      9401      9404      9405      9401      9404      9406      9401      9404      9407
      9402      9401      9403      9402      9401      9404      9403      9401      9404
      9404      9407      9408      9404      9407      9409      9404      9407      9410
      9405      9404      9406      9405      9404      9407      9406      9404      9407
      9407      9410      9411      9407      9410      9412      9407      9410      9413
      9408      9407      9409      9408      9407      9410      9409      9407      9410
      9410      9413      9414      9410      9413      9415      9410      9413      9416
      9411      9410      9412      9411      9410      9413      9412      9410      9413
      9413      9416      9417      9413      9416      9418      9413      9416      9419
      9414      9413      9415      9414      9413      9416      9415      9413      9416
      9416      9419      9420      9416      9419      9421      9416      9419      9422
      9417      9416      9418      9417      9416      9419      9418      9416      9419
      9420      9419      9421      9420      9419      9422      9421      9419      9422
      9423      9424      9425      9423      9424      9426      9423      9424      9427
      9423      9428      9429      9423      9428      9430      9423      9428      9431
      9423      9432      9433      9423      9432      9434      9423      9432      9435
      9423      9436      9437      9423      9436      9438      9423      9436      9439
      9424      9423      9428      9424      9423      9432      9424      9423      9436
      9425      9424      9426      9425      9424      9427      9426      9424      9427
      9428      9423      9432      9428      9423      9436      9429      9428      9430
      9429      9428      9431      9430      9428      9431      9432      9423      9436
      9433      9432      9434      9433      9432      9435      9434      9432      9435
      9436      9439      9440      9436      9439      9441      9436      9439      9446
      9437      9436      9438      9437      9436      9439      9438      9436      9439
      9439      9446      9442      9440      9439      9441      9440      9439      9446
      9441      9439      9446      9442      9445      9447      9443      9442      9444
      9443      9442      9445      9443      9442      9446      9444      9442      9445
      9444      9442      9446      9445      9442      9446      9445      9447      9448
      9445      9447      9449      9445      9447      9452      9447      9452      9450
      9447      9452      9453      9447      9452      9454      9448      9447      9449
      9448      9447      9452      9449      9447      9452      9450      9452      9453
      9450      9452      9454      9450      9502      9503      9450      9502      9504
      9451      9450      9452      9451      9450      9502      9452      9450      9502
      9452      9454      9455      9452      9454      9456      9452      9454      9458
      9453      9452      9454      9454      9456      9457      9454      9458      9459
      9454      9458      9460      9455      9454      9456      9455      9454      9458
      9456      9454      9458      9458      9460      9461      9458      9460      9462
      9459      9458      9460      9460      9462      9463      9460      9462      9464
      9460      9462      9465      9461      9460      9462      9462      9465      9466
      9462      9465      9467      9462      9465      9468      9463      9462      9464
      9463      9462      9465      9464      9462      9465      9465      9468      9469
      9465      9468      9470      9465      9468      9471      9466      9465      9467
      9466      9465      9468      9467      9465      9468      9468      9471      9472
      9468      9471      9473      9468      9471      9474      9469      9468      9470
      9469      9468      9471      9470      9468      9471      9471      9474      9475
      9471      9474      9476      9471      9474      9477      9472      9471      9473
      9472      9471      9474      9473      9471      9474      9474      9477      9478
      9474      9477      9479      9474      9477      9480      9475      9474      9476
      9475      9474      9477      9476      9474      9477      9477      9480      9481
      9477      9480      9482      9477      9480      9483      9478      9477      9479
      9478      9477      9480      9479      9477      9480      9480      9483      9484
      9480      9483      9485      9480      9483      9486      9481      9480      9482
      9481      9480      9483      9482      9480      9483      9483      9486      9487
      9483      9486      9488      9483      9486      9489      9484      9483      9485
      9484      9483      9486      9485      9483      9486      9486      9489      9490
      9486      9489      9491      9486      9489      9492      9487      9486      9488
      9487      9486      9489      9488      9486      9489      9489      9492      9493
      9489      9492      9494      9489      9492      9495      9490      9489      9491
      9490      9489      9492      9491      9489      9492      9492      9495      9496
      9492      9495      9497      9492      9495      9498      9493      9492      9494
      9493      9492      9495      9494      9492      9495      9495      9498      9499
      9495      9498      9500      9495      9498      9501      9496      9495      9497
      9496      9495      9498      9497      9495      9498      9499      9498      9500
      9499      9498      9501      9500      9498      9501      9502      9504      9505
      9502      9504      9506      9502      9504      9507      9503      9502      9504
      9504      9507      9508      9504      9507      9509      9504      9507      9510
      9505      9504      9506      9505      9504      9507      9506      9504      9507
      9507      9510      9511      9507      9510      9512      9507      9510      9513
      9508      9507      9509      9508      9507      9510      9509      9507      9510
      9510      9513      9514      9510      9513      9515      9510      9513      9516
      9511      9510      9512      9511      9510      9513      9512      9510      9513
      9513      9516      9517      9513      9516      9518      9513      9516      9519
      9514      9513      9515      9514      9513      9516      9515      9513      9516
      9516      9519      9520      9516      9519      9521      9516      9519      9522
      9517      9516      9518      9517      9516      9519      9518      9516      9519
      9519      9522      9523      9519      9522      9524      9519      9522      9525
      9520      9519      9521      9520      9519      9522      9521      9519      9522
      9522      9525      9526      9522      9525      9527      9523      9522      9524
      9523      9522      9525      9524      9522      9525      9525      9527      9528
      9525      9527      9529      9526      9525      9527      9527      9529      9530
      9527      9529      9531      9527      9529      9532      9528      9527      9529
      9529      9532      9533      9529      9532      9534      9529      9532      9535
      9530      9529      9531      9530      9529      9532      9531      9529      9532
      9532      9535      9536      9532      9535      9537      9532      9535      9538
      9533      9532      9534      9533      9532      9535      9534      9532      9535
      9535      9538      9539      9535      9538      9540      9535      9538      9541
      9536      9535      9537      9536      9535      9538      9537      9535      9538
      9538      9541      9542      9538      9541      9543      9538      9541      9544
      9539      9538      9540      9539      9538      9541      9540      9538      9541
      9541      9544      9545      9541      9544      9546      9541      9544      9547
      9542      9541      9543      9542      9541      9544      9543      9541      9544
      9544      9547      9548      9544      9547      9549      9544      9547      9550
      9545      9544      9546      9545      9544      9547      9546      9544      9547
      9547      9550      9551      9547      9550      9552      9547      9550      9553
      9548      9547      9549      9548      9547      9550      9549      9547      9550
      9551      9550      9552      9551      9550      9553      9552      9550      9553
      9554      9556      9557      9554      9558      9559      9554      9558      9560
      9554      9558      9561      9554      9600      9597      9554      9600      9601
      9554      9600      9602      9555      9554      9556      9555      9554      9558
      9555      9554      9600      9556      9554      9558      9556      9554      9600
      9558      9554      9600      9558      9561      9562      9558      9561      9592
      9559      9558      9560      9559      9558      9561      9560      9558      9561
      9561      9562      9563      9561      9562      9564      9561      9592      9590
      9561      9592      9593      9561      9592      9597      9562      9561      9592
      9562      9564      9565      9562      9564      9566      9562      9564      9567
      9563      9562      9564      9564      9567      9568      9564      9567      9569
      9564      9567      9590      9565      9564      9566      9565      9564      9567
      9566      9564      9567      9567      9569      9570      9567      9569      9571
      9567      9569      9579      9567      9590      9587      9567      9590      9591
      9567      9590      9592      9568      9567      9569      9568      9567      9590
      9569      9567      9590      9569      9571      9572      9569      9571      9573
      9569      9571      9574      9569      9579      9577      9569      9579      9580
      9569      9579      9584      9570      9569      9571      9570      9569      9579
      9571      9569      9579      9571      9574      9575      9571      9574      9576
      9571      9574      9577      9572      9571      9573      9572      9571      9574
      9573      9571      9574      9574      9577      9578      9574      9577      9579
      9574      9577      9603      9575      9574      9576      9575      9574      9577
      9576      9574      9577      9577      9579      9580      9577      9579      9584
      9577      9603      9604      9577      9603      9605      9577      9603      9609
      9578      9577      9579      9578      9577      9603      9579      9577      9603
      9579      9580      9581      9579      9580      9582      9579      9580      9583
      9579      9584      9585      9579      9584      9586      9579      9584      9587
      9580      9579      9584      9581      9580      9582      9581      9580      9583
      9582      9580      9583      9584      9587      9588      9584      9587      9589
      9584      9587      9590      9585      9584      9586      9585      9584      9587
      9586      9584      9587      9587      9590      9591      9587      9590      9592
      9588      9587      9589      9588      9587      9590      9589      9587      9590
      9590      9592      9593      9590      9592      9597      9591      9590      9592
      9592      9593      9594      9592      9593      9595      9592      9593      9596
      9592      9597      9598      9592      9597      9599      9592      9597      9600
      9593      9592      9597      9594      9593      9595      9594      9593      9596
      9595      9593      9596      9597      9600      9601      9597      9600      9602
      9598      9597      9599      9598      9597      9600      9599      9597      9600
      9601      9600      9602      9603      9605      9606      9603      9605      9607
      9603      9605      9608      9603      9609      9610      9603      9609      9611
      9603      9609      9612      9604      9603      9605      9604      9603      9609
      9605      9603      9609      9606      9605      9607      9606      9605      9608
      9607      9605      9608      9609      9612      9613      9609      9612      9614
      9609      9612      9615      9610      9609      9611      9610      9609      9612
      9611      9609      9612      9612      9615      9616      9612      9615      9617
      9612      9615      9618      9613      9612      9614      9613      9612      9615
      9614      9612      9615      9615      9618      9619      9615      9618      9620
      9615      9618      9624      9616      9615      9617      9616      9615      9618
      9617      9615      9618      9618      9620      9621      9618      9620      9622
      9618      9620      9623      9618      9624      9625      9618      9624      9626
      9618      9624      9627      9619      9618      9620      9619      9618      9624
      9620      9618      9624      9621      9620      9622      9621      9620      9623
      9622      9620      9623      9625      9624      9626      9625      9624      9627
      9626      9624      9627      9628      9632      9633      9628      9632      9634
      9628      9632      9635      9629      9628      9630      9629      9628      9631
      9629      9628      9632      9630      9628      9631      9630      9628      9632
      9631      9628      9632      9632      9635      9636      9632      9635      9637
      9632      9635      9641      9633      9632      9634      9633      9632      9635
      9634      9632      9635      9635      9641      9638      9636      9635      9637
      9636      9635      9641      9637      9635      9641      9638      9642      9643
      9639      9638      9640      9639      9638      9641      9639      9638      9642
      9640      9638      9641      9640      9638      9642      9641      9638      9642
      9642      9643      9644      9642      9643      9645      9642      9643      9646
      9643      9646      9647      9643      9646      9648      9643      9646      9654
      9644      9643      9645      9644      9643      9646      9645      9643      9646
      9646      9648      9649      9646      9654      9655      9646      9654      9656
      9646      9654      9657      9647      9646      9648      9647      9646      9654
      9648      9646      9654      9648      9649      9650      9648      9649      9651
      9649      9651      9652      9649      9651      9653      9649      9651      9663
      9650      9649      9651      9651      9663      9664      9651      9663      9665
      9651      9663      9666      9652      9651      9653      9652      9651      9663
      9653      9651      9663      9654      9657      9658      9655      9654      9656
      9655      9654      9657      9656      9654      9657      9657      9658      9659
      9657      9658      9660      9658      9660      9661      9658      9660      9662
      9658      9660      9710      9659      9658      9660      9660      9710      9711
      9660      9710      9712      9660      9710      9713      9661      9660      9662
      9661      9660      9710      9662      9660      9710      9663      9666      9667
      9663      9666      9668      9663      9666      9669      9664      9663      9665
      9664      9663      9666      9665      9663      9666      9666      9669      9670
      9666      9669      9671      9667      9666      9668      9667      9666      9669
      9668      9666      9669      9669      9671      9672      9669      9671      9673
      9670      9669      9671      9671      9673      9674      9671      9673      9675
      9671      9673      9676      9672      9671      9673      9673      9676      9677
      9673      9676      9678      9674      9673      9675      9674      9673      9676
      9675      9673      9676      9676      9678      9679      9676      9678      9680
      9677      9676      9678      9678      9680      9681      9678      9680      9682
      9678      9680      9683      9679      9678      9680      9680      9683      9684
      9680      9683      9685      9681      9680      9682      9681      9680      9683
      9682      9680      9683      9683      9685      9686      9683      9685      9687
      9684      9683      9685      9685      9687      9688      9685      9687      9689
      9685      9687      9690      9686      9685      9687      9687      9690      9691
      9687      9690      9692      9688      9687      9689      9688      9687      9690
      9689      9687      9690      9690      9692      9693      9690      9692      9694
      9691      9690      9692      9692      9694      9695      9692      9694      9696
      9692      9694      9697      9693      9692      9694      9694      9697      9698
      9694      9697      9699      9694      9697      9700      9695      9694      9696
      9695      9694      9697      9696      9694      9697      9697      9700      9701
      9697      9700      9702      9697      9700      9703      9698      9697      9699
      9698      9697      9700      9699      9697      9700      9700      9703      9704
      9700      9703      9705      9700      9703      9706      9701      9700      9702
      9701      9700      9703      9702      9700      9703      9703      9706      9707
      9703      9706      9708      9703      9706      9709      9704      9703      9705
      9704      9703      9706      9705      9703      9706      9707      9706      9708
      9707      9706      9709      9708      9706      9709      9710      9713      9714
      9710      9713      9715      9710      9713      9716      9711      9710      9712
      9711      9710      9713      9712      9710      9713      9713      9716      9717
      9713      9716      9718      9713      9716      9719      9714      9713      9715
      9714      9713      9716      9715      9713      9716      9716      9719      9720
      9716      9719      9721      9716      9719      9722      9717      9716      9718
      9717      9716      9719      9718      9716      9719      9719      9722      9723
      9719      9722      9724      9719      9722      9725      9720      9719      9721
      9720      9719      9722      9721      9719      9722      9722      9725      9726
      9722      9725      9727      9722      9725      9728      9723      9722      9724
      9723      9722      9725      9724      9722      9725      9725      9728      9729
      9725      9728      9730      9725      9728      9731      9726      9725      9727
      9726      9725      9728      9727      9725      9728      9728      9731      9732
      9728      9731      9733      9728      9731      9734      9729      9728      9730
      9729      9728      9731      9730      9728      9731      9731      9734      9735
      9731      9734      9736      9731      9734      9737      9732      9731      9733
      9732      9731      9734      9733      9731      9734      9734      9737      9738
      9734      9737      9739      9734      9737      9740      9735      9734      9736
      9735      9734      9737      9736      9734      9737      9737      9740      9741
      9737      9740      9742      9737      9740      9743      9738      9737      9739
      9738      9737      9740      9739      9737      9740      9740      9743      9744
      9740      9743      9745      9740      9743      9746      9741      9740      9742
      9741      9740      9743      9742      9740      9743      9743      9746      9747
      9743      9746      9748      9743      9746      9749      9744      9743      9745
      9744      9743      9746      9745      9743      9746      9746      9749      9750
      9746      9749      9751      9746      9749      9752      9747      9746      9748
      9747      9746      9749      9748      9746      9749      9749      9752      9753
      9749      9752      9754      9749      9752      9755      9750      9749      9751
      9750      9749      9752      9751      9749      9752      9752      9755      9756
      9752      9755      9757      9752      9755      9758      9753      9752      9754
      9753      9752      9755      9754      9752      9755      9756      9755      9757
      9756      9755      9758      9757      9755      9758      9759      9760      9761
      9759      9760      9762      9759      9760      9763      9759      9764      9765
      9759      9764      9766      9759      9764      9767      9759      9768      9769
      9759      9768      9770      9759      9768      9771      9759      9772      9773
      9759      9772      9774      9759      9772      9775      9760      9759      9764
      9760      9759      9768      9760      9759      9772      9761      9760      9762
      9761      9760      9763      9762      9760      9763      9764      9759      9768
      9764      9759      9772      9765      9764      9766      9765      9764      9767
      9766      9764      9767      9768      9759      9772      9769      9768      9770
      9769      9768      9771      9770      9768      9771      9772      9775      9776
      9772      9775      9777      9772      9775      9782      9773      9772      9774
      9773      9772      9775      9774      9772      9775      9775      9782      9778
      9776      9775      9777      9776      9775      9782      9777      9775      9782
      9778      9781      9783      9779      9778      9780      9779      9778      9781
      9779      9778      9782      9780      9778      9781      9780      9778      9782
      9781      9778      9782      9781      9783      9784      9781      9783      9785
      9781      9783      9788      9783      9788      9786      9783      9788      9789
      9783      9788      9790      9784      9783      9785      9784      9783      9788
      9785      9783      9788      9786      9788      9789      9786      9788      9790
      9786      9838      9839      9786      9838      9840      9787      9786      9788
      9787      9786      9838      9788      9786      9838      9788      9790      9791
      9788      9790      9792      9788      9790      9794      9789      9788      9790
      9790      9792      9793      9790      9794      9795      9790      9794      9796
      9791      9790      9792      9791      9790      9794      9792      9790      9794
      9794      9796      9797      9794      9796      9798      9795      9794      9796
      9796      9798      9799      9796      9798      9800      9796      9798      9801
      9797      9796      9798      9798      9801      9802      9798      9801      9803
      9798      9801      9804      9799      9798      9800      9799      9798      9801
      9800      9798      9801      9801      9804      9805      9801      9804      9806
      9801      9804      9807      9802      9801      9803      9802      9801      9804
      9803      9801      9804      9804      9807      9808      9804      9807      9809
      9804      9807      9810      9805      9804      9806      9805      9804      9807
      9806      9804      9807      9807      9810      9811      9807      9810      9812
      9807      9810      9813      9808      9807      9809      9808      9807      9810
      9809      9807      9810      9810      9813      9814      9810      9813      9815
      9810      9813      9816      9811      9810      9812      9811      9810      9813
      9812      9810      9813      9813      9816      9817      9813      9816      9818
      9813      9816      9819      9814      9813      9815      9814      9813      9816
      9815      9813      9816      9816      9819      9820      9816      9819      9821
      9816      9819      9822      9817      9816      9818      9817      9816      9819
      9818      9816      9819      9819      9822      9823      9819      9822      9824
      9819      9822      9825      9820      9819      9821      9820      9819      9822
      9821      9819      9822      9822      9825      9826      9822      9825      9827
      9822      9825      9828      9823      9822      9824      9823      9822      9825
      9824      9822      9825      9825      9828      9829      9825      9828      9830
      9825      9828      9831      9826      9825      9827      9826      9825      9828
      9827      9825      9828      9828      9831      9832      9828      9831      9833
      9828      9831      9834      9829      9828      9830      9829      9828      9831
      9830      9828      9831      9831      9834      9835      9831      9834      9836
      9831      9834      9837      9832      9831      9833      9832      9831      9834
      9833      9831      9834      9835      9834      9836      9835      9834      9837
      9836      9834      9837      9838      9840      9841      9838      9840      9842
      9838      9840      9843      9839      9838      9840      9840      9843      9844
      9840      9843      9845      9840      9843      9846      9841      9840      9842
      9841      9840      9843      9842      9840      9843      9843      9846      9847
      9843      9846      9848      9843      9846      9849      9844      9843      9845
      9844      9843      9846      9845      9843      9846      9846      9849      9850
      9846      9849      9851      9846      9849      9852      9847      9846      9848
      9847      9846      9849      9848      9846      9849      9849      9852      9853
      9849      9852      9854      9849      9852      9855      9850      9849      9851
      9850      9849      9852      9851      9849      9852      9852      9855      9856
      9852      9855      9857      9852      9855      9858      9853      9852      9854
      9853      9852      9855      9854      9852      9855      9855      9858      9859
      9855      9858      9860      9855      9858      9861      9856      9855      9857
      9856      9855      9858      9857      9855      9858      9858      9861      9862
      9858      9861      9863      9859      9858      9860      9859      9858      9861
      9860      9858      9861      9861      9863      9864      9861      9863      9865
      9862      9861      9863      9863      9865      9866      9863      9865      9867
      9863      9865      9868      9864      9863      9865      9865      9868      9869
      9865      9868      9870      9865      9868      9871      9866      9865      9867
      9866      9865      9868      9867      9865      9868      9868      9871      9872
      9868      9871      9873      9868      9871      9874      9869      9868      9870
      9869      9868      9871      9870      9868      9871      9871      9874      9875
      9871      9874      9876      9871      9874      9877      9872      9871      9873
      9872      9871      9874      9873      9871      9874      9874      9877      9878
      9874      9877      9879      9874      9877      9880      9875      9874      9876
      9875      9874      9877      9876      9874      9877      9877      9880      9881
      9877      9880      9882      9877      9880      9883      9878      9877      9879
      9878      9877      9880      9879      9877      9880      9880      9883      9884
      9880      9883      9885      9880      9883      9886      9881      9880      9882
      9881      9880      9883      9882      9880      9883      9883      9886      9887
      9883      9886      9888      9883      9886      9889      9884      9883      9885
      9884      9883      9886      9885      9883      9886      9887      9886      9888
      9887      9886      9889      9888      9886      9889      9890      9891      9892
      9890      9891      9893      9890      9891      9894      9890      9895      9896
      9890      9895      9897      9890      9895      9898      9890      9899      9900
      9890      9899      9901      9890      9899      9902      9890      9903      9904
      9890      9903      9905      9890      9903      9906      9891      9890      9895
      9891      9890      9899      9891      9890      9903      9892      9891      9893
      9892      9891      9894      9893      9891      9894      9895      9890      9899
      9895      9890      9903      9896      9895      9897      9896      9895      9898
      9897      9895      9898      9899      9890      9903      9900      9899      9901
      9900      9899      9902      9901      9899      9902      9903      9906      9907
      9903      9906      9908      9903      9906      9912      9904      9903      9905
      9904      9903      9906      9905      9903      9906      9906      9912      9909
      9907      9906      9908      9907      9906      9912      9908      9906      9912
      9909      9913      9914      9910      9909      9911      9910      9909      9912
      9910      9909      9913      9911      9909      9912      9911      9909      9913
      9912      9909      9913      9913      9914      9915      9913      9914      9916
      9913      9914      9917      9914      9917      9918      9914      9917      9919
      9914      9917      9925      9915      9914      9916      9915      9914      9917
      9916      9914      9917      9917      9919      9920      9917      9925      9926
      9917      9925      9927      9917      9925      9928      9918      9917      9919
      9918      9917      9925      9919      9917      9925      9919      9920      9921
      9919      9920      9922      9920      9922      9923      9920      9922      9924
      9920      9922      9934      9921      9920      9922      9922      9934      9935
      9922      9934      9936      9922      9934      9937      9923      9922      9924
      9923      9922      9934      9924      9922      9934      9925      9928      9929
      9926      9925      9927      9926      9925      9928      9927      9925      9928
      9928      9929      9930      9928      9929      9931      9929      9931      9932
      9929      9931      9933      9929      9931      9979      9930      9929      9931
      9931      9979      9980      9931      9979      9981      9931      9979      9982
      9932      9931      9933      9932      9931      9979      9933      9931      9979
      9934      9937      9938      9934      9937      9939      9934      9937      9940
      9935      9934      9936      9935      9934      9937      9936      9934      9937
      9937      9940      9941      9937      9940      9942      9937      9940      9943
      9938      9937      9939      9938      9937      9940      9939      9937      9940
      9940      9943      9944      9940      9943      9945      9940      9943      9946
      9941      9940      9942      9941      9940      9943      9942      9940      9943
      9943      9946      9947      9943      9946      9948      9943      9946      9949
      9944      9943      9945      9944      9943      9946      9945      9943      9946
      9946      9949      9950      9946      9949      9951      9946      9949      9952
      9947      9946      9948      9947      9946      9949      9948      9946      9949
      9949      9952      9953      9949      9952      9954      9950      9949      9951
      9950      9949      9952      9951      9949      9952      9952      9954      9955
      9952      9954      9956      9953      9952      9954      9954      9956      9957
      9954      9956      9958      9954      9956      9959      9955      9954      9956
      9956      9959      9960      9956      9959      9961      9957      9956      9958
      9957      9956      9959      9958      9956      9959      9959      9961      9962
      9959      9961      9963      9960      9959      9961      9961      9963      9964
      9961      9963      9965      9961      9963      9966      9962      9961      9963
      9963      9966      9967      9963      9966      9968      9963      9966      9969
      9964      9963      9965      9964      9963      9966      9965      9963      9966
      9966      9969      9970      9966      9969      9971      9966      9969      9972
      9967      9966      9968      9967      9966      9969      9968      9966      9969
      9969      9972      9973      9969      9972      9974      9969      9972      9975
      9970      9969      9971      9970      9969      9972      9971      9969      9972
      9972      9975      9976      9972      9975      9977      9972      9975      9978
      9973      9972      9974      9973      9972      9975      9974      9972      9975
      9976      9975      9977      9976      9975      9978      9977      9975      9978
      9979      9982      9983      9979      9982      9984      9979      9982      9985
      9980      9979      9981      9980      9979      9982      9981      9979      9982
      9982      9985      9986      9982      9985      9987      9982      9985      9988
      9983      9982      9984      9983      9982      9985      9984      9982      9985
      9985      9988      9989      9985      9988      9990      9985      9988      9991
      9986      9985      9987      9986      9985      9988      9987      9985      9988
      9988      9991      9992      9988      9991      9993      9988      9991      9994
      9989      9988      9990      9989      9988      9991      9990      9988      9991
      9991      9994      9995      9991      9994      9996      9991      9994      9997
      9992      9991      9993      9992      9991      9994      9993      9991      9994
      9994      9997      9998      9994      9997      9999      9994      9997     10000
      9995      9994      9996      9995      9994      9997      9996      9994      9997
      9997     10000     10001      9997     10000     10002      9997     10000     10003
      9998      9997      9999      9998      9997     10000      9999      9997     10000
     10000     10003     10004     10000     10003     10005     10000     10003     10006
     10001     10000     10002     10001     10000     10003     10002     10000     10003
     10003     10006     10007     10003     10006     10008     10003     10006     10009
     10004     10003     10005     10004     10003     10006     10005     10003     10006
     10006     10009     10010     10006     10009     10011     10006     10009     10012
     10007     10006     10008     10007     10006     10009     10008     10006     10009
     10009     10012     10013     10009     10012     10014     10009     10012     10015
     10010     10009     10011     10010     10009     10012     10011     10009     10012
     10012     10015     10016     10012     10015     10017     10012     10015     10018
     10013     10012     10014     10013     10012     10015     10014     10012     10015
     10015     10018     10019     10015     10018     10020     10015     10018     10021
     10016     10015     10017     10016     10015     10018     10017     10015     10018
     10018     10021     10022     10018     10021     10023     10018     10021     10024
     10019     10018     10020     10019     10018     10021     10020     10018     10021
     10021     10024     10025     10021     10024     10026     10021     10024     10027
     10022     10021     10023     10022     10021     10024     10023     10021     10024
     10025     10024     10026     10025     10024     10027     10026     10024     10027
     10028     10029     10030     10028     10029     10031     10028     10029     10032
     10028     10033     10034     10028     10033     10035     10028     10033     10036
     10028     10037     10038     10028     10037     10039     10028     10037     10040
     10028     10041     10042     10028     10041     10043     10028     10041     10044
     10029     10028     10033     10029     10028     10037     10029     10028     10041
     10030     10029     10031     10030     10029     10032     10031     10029     10032
     10033     10028     10037     10033     10028     10041     10034     10033     10035
     10034     10033     10036     10035     10033     10036     10037     10028     10041
     10038     10037     10039     10038     10037     10040     10039     10037     10040
     10041     10044     10045     10041     10044     10046     10041     10044     10051
     10042     10041     10043     10042     10041     10044     10043     10041     10044
     10044     10051     10047     10045     10044     10046     10045     10044     10051
     10046     10044     10051     10047     10050     10052     10048     10047     10049
     10048     10047     10050     10048     10047     10051     10049     10047     10050
     10049     10047     10051     10050     10047     10051     10050     10052     10053
     10050     10052     10054     10050     10052     10057     10052     10057     10055
     10052     10057     10058     10052     10057     10059     10053     10052     10054
     10053     10052     10057     10054     10052     10057     10055     10057     10058
     10055     10057     10059     10055     10107     10108     10055     10107     10109
     10056     10055     10057     10056     10055     10107     10057     10055     10107
     10057     10059     10060     10057     10059     10061     10057     10059     10063
     10058     10057     10059     10059     10061     10062     10059     10063     10064
     10059     10063     10065     10060     10059     10061     10060     10059     10063
     10061     10059     10063     10063     10065     10066     10063     10065     10067
     10064     10063     10065     10065     10067     10068     10065     10067     10069
     10065     10067     10070     10066     10065     10067     10067     10070     10071
     10067     10070     10072     10067     10070     10073     10068     10067     10069
     10068     10067     10070     10069     10067     10070     10070     10073     10074
     10070     10073     10075     10070     10073     10076     10071     10070     10072
     10071     10070     10073     10072     10070     10073     10073     10076     10077
     10073     10076     10078     10073     10076     10079     10074     10073     10075
     10074     10073     10076     10075     10073     10076     10076     10079     10080
     10076     10079     10081     10076     10079     10082     10077     10076     10078
     10077     10076     10079     10078     10076     10079     10079     10082     10083
     10079     10082     10084     10079     10082     10085     10080     10079     10081
     10080     10079     10082     10081     10079     10082     10082     10085     10086
     10082     10085     10087     10082     10085     10088     10083     10082     10084
     10083     10082     10085     10084     10082     10085     10085     10088     10089
     10085     10088     10090     10085     10088     10091     10086     10085     10087
     10086     10085     10088     10087     10085     10088     10088     10091     10092
     10088     10091     10093     10088     10091     10094     10089     10088     10090
     10089     10088     10091     10090     10088     10091     10091     10094     10095
     10091     10094     10096     10091     10094     10097     10092     10091     10093
     10092     10091     10094     10093     10091     10094     10094     10097     10098
     10094     10097     10099     10094     10097     10100     10095     10094     10096
     10095     10094     10097     10096     10094     10097     10097     10100     10101
     10097     10100     10102     10097     10100     10103     10098     10097     10099
     10098     10097     10100     10099     10097     10100     10100     10103     10104
     10100     10103     10105     10100     10103     10106     10101     10100     10102
     10101     10100     10103     10102     10100     10103     10104     10103     10105
     10104     10103     10106     10105     10103     10106     10107     10109     10110
     10107     10109     10111     10107     10109     10112     10108     10107     10109
     10109     10112     10113     10109     10112     10114     10109     10112     10115
     10110     10109     10111     10110     10109     10112     10111     10109     10112
     10112     10115     10116     10112     10115     10117     10112     10115     10118
     10113     10112     10114     10113     10112     10115     10114     10112     10115
     10115     10118     10119     10115     10118     10120     10115     10118     10121
     10116     10115     10117     10116     10115     10118     10117     10115     10118
     10118     10121     10122     10118     10121     10123     10118     10121     10124
     10119     10118     10120     10119     10118     10121     10120     10118     10121
     10121     10124     10125     10121     10124     10126     10121     10124     10127
     10122     10121     10123     10122     10121     10124     10123     10121     10124
     10124     10127     10128     10124     10127     10129     10124     10127     10130
     10125     10124     10126     10125     10124     10127     10126     10124     10127
     10127     10130     10131     10127     10130     10132     10128     10127     10129
     10128     10127     10130     10129     10127     10130     10130     10132     10133
     10130     10132     10134     10131     10130     10132     10132     10134     10135
     10132     10134     10136     10132     10134     10137     10133     10132     10134
     10134     10137     10138     10134     10137     10139     10134     10137     10140
     10135     10134     10136     10135     10134     10137     10136     10134     10137
     10137     10140     10141     10137     10140     10142     10137     10140     10143
     10138     10137     10139     10138     10137     10140     10139     10137     10140
     10140     10143     10144     10140     10143     10145     10140     10143     10146
     10141     10140     10142     10141     10140     10143     10142     10140     10143
     10143     10146     10147     10143     10146     10148     10143     10146     10149
     10144     10143     10145     10144     10143     10146     10145     10143     10146
     10146     10149     10150     10146     10149     10151     10146     10149     10152
     10147     10146     10148     10147     10146     10149     10148     10146     10149
     10149     10152     10153     10149     10152     10154     10149     10152     10155
     10150     10149     10151     10150     10149     10152     10151     10149     10152
     10152     10155     10156     10152     10155     10157     10152     10155     10158
     10153     10152     10154     10153     10152     10155     10154     10152     10155
     10156     10155     10157     10156     10155     10158     10157     10155     10158
     10159     10161     10162     10159     10163     10164     10159     10163     10165
     10159     10163     10166     10159     10205     10202     10159     10205     10206
     10159     10205     10207     10160     10159     10161     10160     10159     10163
     10160     10159     10205     10161     10159     10163     10161     10159     10205
     10163     10159     10205     10163     10166     10167     10163     10166     10197
     10164     10163     10165     10164     10163     10166     10165     10163     10166
     10166     10167     10168     10166     10167     10169     10166     10197     10195
     10166     10197     10198     10166     10197     10202     10167     10166     10197
     10167     10169     10170     10167     10169     10171     10167     10169     10172
     10168     10167     10169     10169     10172     10173     10169     10172     10174
     10169     10172     10195     10170     10169     10171     10170     10169     10172
     10171     10169     10172     10172     10174     10175     10172     10174     10176
     10172     10174     10184     10172     10195     10192     10172     10195     10196
     10172     10195     10197     10173     10172     10174     10173     10172     10195
     10174     10172     10195     10174     10176     10177     10174     10176     10178
     10174     10176     10179     10174     10184     10182     10174     10184     10185
     10174     10184     10189     10175     10174     10176     10175     10174     10184
     10176     10174     10184     10176     10179     10180     10176     10179     10181
     10176     10179     10182     10177     10176     10178     10177     10176     10179
     10178     10176     10179     10179     10182     10183     10179     10182     10184
     10179     10182     10208     10180     10179     10181     10180     10179     10182
     10181     10179     10182     10182     10184     10185     10182     10184     10189
     10182     10208     10209     10182     10208     10210     10182     10208     10214
     10183     10182     10184     10183     10182     10208     10184     10182     10208
     10184     10185     10186     10184     10185     10187     10184     10185     10188
     10184     10189     10190     10184     10189     10191     10184     10189     10192
     10185     10184     10189     10186     10185     10187     10186     10185     10188
     10187     10185     10188     10189     10192     10193     10189     10192     10194
     10189     10192     10195     10190     10189     10191     10190     10189     10192
     10191     10189     10192     10192     10195     10196     10192     10195     10197
     10193     10192     10194     10193     10192     10195     10194     10192     10195
     10195     10197     10198     10195     10197     10202     10196     10195     10197
     10197     10198     10199     10197     10198     10200     10197     10198     10201
     10197     10202     10203     10197     10202     10204     10197     10202     10205
     10198     10197     10202     10199     10198     10200     10199     10198     10201
     10200     10198     10201     10202     10205     10206     10202     10205     10207
     10203     10202     10204     10203     10202     10205     10204     10202     10205
     10206     10205     10207     10208     10210     10211     10208     10210     10212
     10208     10210     10213     10208     10214     10215     10208     10214     10216
     10208     10214     10217     10209     10208     10210     10209     10208     10214
     10210     10208     10214     10211     10210     10212     10211     10210     10213
     10212     10210     10213     10214     10217     10218     10214     10217     10219
     10214     10217     10220     10215     10214     10216     10215     10214     10217
     10216     10214     10217     10217     10220     10221     10217     10220     10222
     10217     10220     10223     10218     10217     10219     10218     10217     10220
     10219     10217     10220     10220     10223     10224     10220     10223     10225
     10220     10223     10229     10221     10220     10222     10221     10220     10223
     10222     10220     10223     10223     10225     10226     10223     10225     10227
     10223     10225     10228     10223     10229     10230     10223     10229     10231
     10223     10229     10232     10224     10223     10225     10224     10223     10229
     10225     10223     10229     10226     10225     10227     10226     10225     10228
     10227     10225     10228     10230     10229     10231     10230     10229     10232
     10231     10229     10232     10233     10237     10238     10233     10237     10239
     10233     10237     10240     10234     10233     10235     10234     10233     10236
     10234     10233     10237     10235     10233     10236     10235     10233     10237
     10236     10233     10237     10237     10240     10241     10237     10240     10242
     10237     10240     10246     10238     10237     10239     10238     10237     10240
     10239     10237     10240     10240     10246     10243     10241     10240     10242
     10241     10240     10246     10242     10240     10246     10243     10247     10248
     10244     10243     10245     10244     10243     10246     10244     10243     10247
     10245     10243     10246     10245     10243     10247     10246     10243     10247
     10247     10248     10249     10247     10248     10250     10247     10248     10251
     10248     10251     10252     10248     10251     10253     10248     10251     10259
     10249     10248     10250     10249     10248     10251     10250     10248     10251
     10251     10253     10254     10251     10259     10260     10251     10259     10261
     10251     10259     10262     10252     10251     10253     10252     10251     10259
     10253     10251     10259     10253     10254     10255     10253     10254     10256
     10254     10256     10257     10254     10256     10258     10254     10256     10268
     10255     10254     10256     10256     10268     10269     10256     10268     10270
     10256     10268     10271     10257     10256     10258     10257     10256     10268
     10258     10256     10268     10259     10262     10263     10260     10259     10261
     10260     10259     10262     10261     10259     10262     10262     10263     10264
     10262     10263     10265     10263     10265     10266     10263     10265     10267
     10263     10265     10315     10264     10263     10265     10265     10315     10316
     10265     10315     10317     10265     10315     10318     10266     10265     10267
     10266     10265     10315     10267     10265     10315     10268     10271     10272
     10268     10271     10273     10268     10271     10274     10269     10268     10270
     10269     10268     10271     10270     10268     10271     10271     10274     10275
     10271     10274     10276     10272     10271     10273     10272     10271     10274
     10273     10271     10274     10274     10276     10277     10274     10276     10278
     10275     10274     10276     10276     10278     10279     10276     10278     10280
     10276     10278     10281     10277     10276     10278     10278     10281     10282
     10278     10281     10283     10279     10278     10280     10279     10278     10281
     10280     10278     10281     10281     10283     10284     10281     10283     10285
     10282     10281     10283     10283     10285     10286     10283     10285     10287
     10283     10285     10288     10284     10283     10285     10285     10288     10289
     10285     10288     10290     10286     10285     10287     10286     10285     10288
     10287     10285     10288     10288     10290     10291     10288     10290     10292
     10289     10288     10290     10290     10292     10293     10290     10292     10294
     10290     10292     10295     10291     10290     10292     10292     10295     10296
     10292     10295     10297     10293     10292     10294     10293     10292     10295
     10294     10292     10295     10295     10297     10298     10295     10297     10299
     10296     10295     10297     10297     10299     10300     10297     10299     10301
     10297     10299     10302     10298     10297     10299     10299     10302     10303
     10299     10302     10304     10299     10302     10305     10300     10299     10301
     10300     10299     10302     10301     10299     10302     10302     10305     10306
     10302     10305     10307     10302     10305     10308     10303     10302     10304
     10303     10302     10305     10304     10302     10305     10305     10308     10309
     10305     10308     10310     10305     10308     10311     10306     10305     10307
     10306     10305     10308     10307     10305     10308     10308     10311     10312
     10308     10311     10313     10308     10311     10314     10309     10308     10310
     10309     10308     10311     10310     10308     10311     10312     10311     10313
     10312     10311     10314     10313     10311     10314     10315     10318     10319
     10315     10318     10320     10315     10318     10321     10316     10315     10317
     10316     10315     10318     10317     10315     10318     10318     10321     10322
     10318     10321     10323     10318     10321     10324     10319     10318     10320
     10319     10318     10321     10320     10318     10321     10321     10324     10325
     10321     10324     10326     10321     10324     10327     10322     10321     10323
     10322     10321     10324     10323     10321     10324     10324     10327     10328
     10324     10327     10329     10324     10327     10330     10325     10324     10326
     10325     10324     10327     10326     10324     10327     10327     10330     10331
     10327     10330     10332     10327     10330     10333     10328     10327     10329
     10328     10327     10330     10329     10327     10330     10330     10333     10334
     10330     10333     10335     10330     10333     10336     10331     10330     10332
     10331     10330     10333     10332     10330     10333     10333     10336     10337
     10333     10336     10338     10333     10336     10339     10334     10333     10335
     10334     10333     10336     10335     10333     10336     10336     10339     10340
     10336     10339     10341     10336     10339     10342     10337     10336     10338
     10337     10336     10339     10338     10336     10339     10339     10342     10343
     10339     10342     10344     10339     10342     10345     10340     10339     10341
     10340     10339     10342     10341     10339     10342     10342     10345     10346
     10342     10345     10347     10342     10345     10348     10343     10342     10344
     10343     10342     10345     10344     10342     10345     10345     10348     10349
     10345     10348     10350     10345     10348     10351     10346     10345     10347
     10346     10345     10348     10347     10345     10348     10348     10351     10352
     10348     10351     10353     10348     10351     10354     10349     10348     10350
     10349     10348     10351     10350     10348     10351     10351     10354     10355
     10351     10354     10356     10351     10354     10357     10352     10351     10353
     10352     10351     10354     10353     10351     10354     10354     10357     10358
     10354     10357     10359     10354     10357     10360     10355     10354     10356
     10355     10354     10357     10356     10354     10357     10357     10360     10361
     10357     10360     10362     10357     10360     10363     10358     10357     10359
     10358     10357     10360     10359     10357     10360     10361     10360     10362
     10361     10360     10363     10362     10360     10363     10364     10365     10366
     10364     10365     10367     10364     10365     10368     10364     10369     10370
     10364     10369     10371     10364     10369     10372     10364     10373     10374
     10364     10373     10375     10364     10373     10376     10364     10377     10378
     10364     10377     10379     10364     10377     10380     10365     10364     10369
     10365     10364     10373     10365     10364     10377     10366     10365     10367
     10366     10365     10368     10367     10365     10368     10369     10364     10373
     10369     10364     10377     10370     10369     10371     10370     10369     10372
     10371     10369     10372     10373     10364     10377     10374     10373     10375
     10374     10373     10376     10375     10373     10376     10377     10380     10381
     10377     10380     10382     10377     10380     10387     10378     10377     10379
     10378     10377     10380     10379     10377     10380     10380     10387     10383
     10381     10380     10382     10381     10380     10387     10382     10380     10387
     10383     10386     10388     10384     10383     10385     10384     10383     10386
     10384     10383     10387     10385     10383     10386     10385     10383     10387
     10386     10383     10387     10386     10388     10389     10386     10388     10390
     10386     10388     10393     10388     10393     10391     10388     10393     10394
     10388     10393     10395     10389     10388     10390     10389     10388     10393
     10390     10388     10393     10391     10393     10394     10391     10393     10395
     10391     10443     10444     10391     10443     10445     10392     10391     10393
     10392     10391     10443     10393     10391     10443     10393     10395     10396
     10393     10395     10397     10393     10395     10399     10394     10393     10395
     10395     10397     10398     10395     10399     10400     10395     10399     10401
     10396     10395     10397     10396     10395     10399     10397     10395     10399
     10399     10401     10402     10399     10401     10403     10400     10399     10401
     10401     10403     10404     10401     10403     10405     10401     10403     10406
     10402     10401     10403     10403     10406     10407     10403     10406     10408
     10403     10406     10409     10404     10403     10405     10404     10403     10406
     10405     10403     10406     10406     10409     10410     10406     10409     10411
     10406     10409     10412     10407     10406     10408     10407     10406     10409
     10408     10406     10409     10409     10412     10413     10409     10412     10414
     10409     10412     10415     10410     10409     10411     10410     10409     10412
     10411     10409     10412     10412     10415     10416     10412     10415     10417
     10412     10415     10418     10413     10412     10414     10413     10412     10415
     10414     10412     10415     10415     10418     10419     10415     10418     10420
     10415     10418     10421     10416     10415     10417     10416     10415     10418
     10417     10415     10418     10418     10421     10422     10418     10421     10423
     10418     10421     10424     10419     10418     10420     10419     10418     10421
     10420     10418     10421     10421     10424     10425     10421     10424     10426
     10421     10424     10427     10422     10421     10423     10422     10421     10424
     10423     10421     10424     10424     10427     10428     10424     10427     10429
     10424     10427     10430     10425     10424     10426     10425     10424     10427
     10426     10424     10427     10427     10430     10431     10427     10430     10432
     10427     10430     10433     10428     10427     10429     10428     10427     10430
     10429     10427     10430     10430     10433     10434     10430     10433     10435
     10430     10433     10436     10431     10430     10432     10431     10430     10433
     10432     10430     10433     10433     10436     10437     10433     10436     10438
     10433     10436     10439     10434     10433     10435     10434     10433     10436
     10435     10433     10436     10436     10439     10440     10436     10439     10441
     10436     10439     10442     10437     10436     10438     10437     10436     10439
     10438     10436     10439     10440     10439     10441     10440     10439     10442
     10441     10439     10442     10443     10445     10446     10443     10445     10447
     10443     10445     10448     10444     10443     10445     10445     10448     10449
     10445     10448     10450     10445     10448     10451     10446     10445     10447
     10446     10445     10448     10447     10445     10448     10448     10451     10452
     10448     10451     10453     10448     10451     10454     10449     10448     10450
     10449     10448     10451     10450     10448     10451     10451     10454     10455
     10451     10454     10456     10451     10454     10457     10452     10451     10453
     10452     10451     10454     10453     10451     10454     10454     10457     10458
     10454     10457     10459     10454     10457     10460     10455     10454     10456
     10455     10454     10457     10456     10454     10457     10457     10460     10461
     10457     10460     10462     10457     10460     10463     10458     10457     10459
     10458     10457     10460     10459     10457     10460     10460     10463     10464
     10460     10463     10465     10460     10463     10466     10461     10460     10462
     10461     10460     10463     10462     10460     10463     10463     10466     10467
     10463     10466     10468     10464     10463     10465     10464     10463     10466
     10465     10463     10466     10466     10468     10469     10466     10468     10470
     10467     10466     10468     10468     10470     10471     10468     10470     10472
     10468     10470     10473     10469     10468     10470     10470     10473     10474
     10470     10473     10475     10470     10473     10476     10471     10470     10472
     10471     10470     10473     10472     10470     10473     10473     10476     10477
     10473     10476     10478     10473     10476     10479     10474     10473     10475
     10474     10473     10476     10475     10473     10476     10476     10479     10480
     10476     10479     10481     10476     10479     10482     10477     10476     10478
     10477     10476     10479     10478     10476     10479     10479     10482     10483
     10479     10482     10484     10479     10482     10485     10480     10479     10481
     10480     10479     10482     10481     10479     10482     10482     10485     10486
     10482     10485     10487     10482     10485     10488     10483     10482     10484
     10483     10482     10485     10484     10482     10485     10485     10488     10489
     10485     10488     10490     10485     10488     10491     10486     10485     10487
     10486     10485     10488     10487     10485     10488     10488     10491     10492
     10488     10491     10493     10488     10491     10494     10489     10488     10490
     10489     10488     10491     10490     10488     10491     10492     10491     10493
     10492     10491     10494     10493     10491     10494     10495     10499     10500
     10495     10499     10501     10495     10499     10504     10496     10495     10497
     10496     10495     10498     10496     10495     10499     10497     10495     10498
     10497     10495     10499     10498     10495     10499     10499     10501     10502
     10499     10501     10503     10499     10504     10505     10499     10504     10506
     10499     10504     10510     10500     10499     10501     10500     10499     10504
     10501     10499     10504     10502     10501     10503     10504     10510     10507
     10505     10504     10506     10505     10504     10510     10506     10504     10510
     10507     10511     10512     10508     10507     10509     10508     10507     10510
     10508     10507     10511     10509     10507     10510     10509     10507     10511
     10510     10507     10511     10511     10512     10513     10511     10512     10514
     10511     10512     10515     10512     10515     10516     10512     10515     10517
     10512     10515     10523     10513     10512     10514     10513     10512     10515
     10514     10512     10515     10515     10517     10518     10515     10523     10524
     10515     10523     10525     10515     10523     10526     10516     10515     10517
     10516     10515     10523     10517     10515     10523     10517     10518     10519
     10517     10518     10520     10518     10520     10521     10518     10520     10522
     10518     10520     10532     10519     10518     10520     10520     10532     10533
     10520     10532     10534     10520     10532     10535     10521     10520     10522
     10521     10520     10532     10522     10520     10532     10523     10526     10527
     10524     10523     10525     10524     10523     10526     10525     10523     10526
     10526     10527     10528     10526     10527     10529     10527     10529     10530
     10527     10529     10531     10527     10529     10579     10528     10527     10529
     10529     10579     10580     10529     10579     10581     10529     10579     10582
     10530     10529     10531     10530     10529     10579     10531     10529     10579
     10532     10535     10536     10532     10535     10537     10532     10535     10538
     10533     10532     10534     10533     10532     10535     10534     10532     10535
     10535     10538     10539     10535     10538     10540     10536     10535     10537
     10536     10535     10538     10537     10535     10538     10538     10540     10541
     10538     10540     10542     10539     10538     10540     10540     10542     10543
     10540     10542     10544     10540     10542     10545     10541     10540     10542
     10542     10545     10546     10542     10545     10547     10543     10542     10544
     10543     10542     10545     10544     10542     10545     10545     10547     10548
     10545     10547     10549     10546     10545     10547     10547     10549     10550
     10547     10549     10551     10547     10549     10552     10548     10547     10549
     10549     10552     10553     10549     10552     10554     10550     10549     10551
     10550     10549     10552     10551     10549     10552     10552     10554     10555
     10552     10554     10556     10553     10552     10554     10554     10556     10557
     10554     10556     10558     10554     10556     10559     10555     10554     10556
     10556     10559     10560     10556     10559     10561     10557     10556     10558
     10557     10556     10559     10558     10556     10559     10559     10561     10562
     10559     10561     10563     10560     10559     10561     10561     10563     10564
     10561     10563     10565     10561     10563     10566     10562     10561     10563
     10563     10566     10567     10563     10566     10568     10563     10566     10569
     10564     10563     10565     10564     10563     10566     10565     10563     10566
     10566     10569     10570     10566     10569     10571     10566     10569     10572
     10567     10566     10568     10567     10566     10569     10568     10566     10569
     10569     10572     10573     10569     10572     10574     10569     10572     10575
     10570     10569     10571     10570     10569     10572     10571     10569     10572
     10572     10575     10576     10572     10575     10577     10572     10575     10578
     10573     10572     10574     10573     10572     10575     10574     10572     10575
     10576     10575     10577     10576     10575     10578     10577     10575     10578
     10579     10582     10583     10579     10582     10584     10579     10582     10585
     10580     10579     10581     10580     10579     10582     10581     10579     10582
     10582     10585     10586     10582     10585     10587     10582     10585     10588
     10583     10582     10584     10583     10582     10585     10584     10582     10585
     10585     10588     10589     10585     10588     10590     10585     10588     10591
     10586     10585     10587     10586     10585     10588     10587     10585     10588
     10588     10591     10592     10588     10591     10593     10588     10591     10594
     10589     10588     10590     10589     10588     10591     10590     10588     10591
     10591     10594     10595     10591     10594     10596     10591     10594     10597
     10592     10591     10593     10592     10591     10594     10593     10591     10594
     10594     10597     10598     10594     10597     10599     10594     10597     10600
     10595     10594     10596     10595     10594     10597     10596     10594     10597
     10597     10600     10601     10597     10600     10602     10597     10600     10603
     10598     10597     10599     10598     10597     10600     10599     10597     10600
     10600     10603     10604     10600     10603     10605     10600     10603     10606
     10601     10600     10602     10601     10600     10603     10602     10600     10603
     10603     10606     10607     10603     10606     10608     10603     10606     10609
     10604     10603     10605     10604     10603     10606     10605     10603     10606
     10606     10609     10610     10606     10609     10611     10606     10609     10612
     10607     10606     10608     10607     10606     10609     10608     10606     10609
     10609     10612     10613     10609     10612     10614     10609     10612     10615
     10610     10609     10611     10610     10609     10612     10611     10609     10612
     10612     10615     10616     10612     10615     10617     10612     10615     10618
     10613     10612     10614     10613     10612     10615     10614     10612     10615
     10615     10618     10619     10615     10618     10620     10615     10618     10621
     10616     10615     10617     10616     10615     10618     10617     10615     10618
     10618     10621     10622     10618     10621     10623     10618     10621     10624
     10619     10618     10620     10619     10618     10621     10620     10618     10621
     10621     10624     10625     10621     10624     10626     10621     10624     10627
     10622     10621     10623     10622     10621     10624     10623     10621     10624
     10625     10624     10626     10625     10624     10627     10626     10624     10627
     10628     10629     10630     10628     10629     10631     10628     10629     10644
     10628     10632     10633     10628     10632     10634     10628     10632     10635
     10628     10636     10637     10628     10636     10638     10628     10636     10639
     10628     10640     10641     10628     10640     10642     10628     10640     10643
     10629     10628     10632     10629     10628     10636     10629     10628     10640
     10629     10644     10645     10629     10644     10646     10629     10644     10650
     10630     10629     10631     10630     10629     10644     10631     10629     10644
     10632     10628     10636     10632     10628     10640     10633     10632     10634
     10633     10632     10635     10634     10632     10635     10636     10628     10640
     10637     10636     10638     10637     10636     10639     10638     10636     10639
     10641     10640     10642     10641     10640     10643     10642     10640     10643
     10644     10650     10647     10645     10644     10646     10645     10644     10650
     10646     10644     10650     10647     10651     10652     10648     10647     10649
     10648     10647     10650     10648     10647     10651     10649     10647     10650
     10649     10647     10651     10650     10647     10651     10651     10652     10653
     10651     10652     10654     10651     10652     10655     10652     10655     10656
     10652     10655     10657     10652     10655     10663     10653     10652     10654
     10653     10652     10655     10654     10652     10655     10655     10657     10658
     10655     10663     10664     10655     10663     10665     10655     10663     10666
     10656     10655     10657     10656     10655     10663     10657     10655     10663
     10657     10658     10659     10657     10658     10660     10658     10660     10661
     10658     10660     10662     10658     10660     10672     10659     10658     10660
     10660     10672     10673     10660     10672     10674     10660     10672     10675
     10661     10660     10662     10661     10660     10672     10662     10660     10672
     10663     10666     10667     10664     10663     10665     10664     10663     10666
     10665     10663     10666     10666     10667     10668     10666     10667     10669
     10667     10669     10670     10667     10669     10671     10667     10669     10719
     10668     10667     10669     10669     10719     10720     10669     10719     10721
     10669     10719     10722     10670     10669     10671     10670     10669     10719
     10671     10669     10719     10672     10675     10676     10672     10675     10677
     10672     10675     10678     10673     10672     10674     10673     10672     10675
     10674     10672     10675     10675     10678     10679     10675     10678     10680
     10676     10675     10677     10676     10675     10678     10677     10675     10678
     10678     10680     10681     10678     10680     10682     10679     10678     10680
     10680     10682     10683     10680     10682     10684     10680     10682     10685
     10681     10680     10682     10682     10685     10686     10682     10685     10687
     10683     10682     10684     10683     10682     10685     10684     10682     10685
     10685     10687     10688     10685     10687     10689     10686     10685     10687
     10687     10689     10690     10687     10689     10691     10687     10689     10692
     10688     10687     10689     10689     10692     10693     10689     10692     10694
     10690     10689     10691     10690     10689     10692     10691     10689     10692
     10692     10694     10695     10692     10694     10696     10693     10692     10694
     10694     10696     10697     10694     10696     10698     10694     10696     10699
     10695     10694     10696     10696     10699     10700     10696     10699     10701
     10697     10696     10698     10697     10696     10699     10698     10696     10699
     10699     10701     10702     10699     10701     10703     10700     10699     10701
     10701     10703     10704     10701     10703     10705     10701     10703     10706
     10702     10701     10703     10703     10706     10707     10703     10706     10708
     10703     10706     10709     10704     10703     10705     10704     10703     10706
     10705     10703     10706     10706     10709     10710     10706     10709     10711
     10706     10709     10712     10707     10706     10708     10707     10706     10709
     10708     10706     10709     10709     10712     10713     10709     10712     10714
     10709     10712     10715     10710     10709     10711     10710     10709     10712
     10711     10709     10712     10712     10715     10716     10712     10715     10717
     10712     10715     10718     10713     10712     10714     10713     10712     10715
     10714     10712     10715     10716     10715     10717     10716     10715     10718
     10717     10715     10718     10719     10722     10723     10719     10722     10724
     10719     10722     10725     10720     10719     10721     10720     10719     10722
     10721     10719     10722     10722     10725     10726     10722     10725     10727
     10722     10725     10728     10723     10722     10724     10723     10722     10725
     10724     10722     10725     10725     10728     10729     10725     10728     10730
     10725     10728     10731     10726     10725     10727     10726     10725     10728
     10727     10725     10728     10728     10731     10732     10728     10731     10733
     10728     10731     10734     10729     10728     10730     10729     10728     10731
     10730     10728     10731     10731     10734     10735     10731     10734     10736
     10731     10734     10737     10732     10731     10733     10732     10731     10734
     10733     10731     10734     10734     10737     10738     10734     10737     10739
     10734     10737     10740     10735     10734     10736     10735     10734     10737
     10736     10734     10737     10737     10740     10741     10737     10740     10742
     10737     10740     10743     10738     10737     10739     10738     10737     10740
     10739     10737     10740     10740     10743     10744     10740     10743     10745
     10740     10743     10746     10741     10740     10742     10741     10740     10743
     10742     10740     10743     10743     10746     10747     10743     10746     10748
     10743     10746     10749     10744     10743     10745     10744     10743     10746
     10745     10743     10746     10746     10749     10750     10746     10749     10751
     10746     10749     10752     10747     10746     10748     10747     10746     10749
     10748     10746     10749     10749     10752     10753     10749     10752     10754
     10749     10752     10755     10750     10749     10751     10750     10749     10752
     10751     10749     10752     10752     10755     10756     10752     10755     10757
     10752     10755     10758     10753     10752     10754     10753     10752     10755
     10754     10752     10755     10755     10758     10759     10755     10758     10760
     10755     10758     10761     10756     10755     10757     10756     10755     10758
     10757     10755     10758     10758     10761     10762     10758     10761     10763
     10758     10761     10764     10759     10758     10760     10759     10758     10761
     10760     10758     10761     10761     10764     10765     10761     10764     10766
     10761     10764     10767     10762     10761     10763     10762     10761     10764
     10763     10761     10764     10765     10764     10766     10765     10764     10767
     10766     10764     10767     10768     10772     10773     10768     10772     10774
     10768     10772     10775     10769     10768     10770     10769     10768     10771
     10769     10768     10772     10770     10768     10771     10770     10768     10772
     10771     10768     10772     10772     10775     10776     10772     10775     10777
     10772     10775     10781     10773     10772     10774     10773     10772     10775
     10774     10772     10775     10775     10781     10778     10776     10775     10777
     10776     10775     10781     10777     10775     10781     10778     10782     10783
     10779     10778     10780     10779     10778     10781     10779     10778     10782
     10780     10778     10781     10780     10778     10782     10781     10778     10782
     10782     10783     10784     10782     10783     10785     10782     10783     10786
     10783     10786     10787     10783     10786     10788     10783     10786     10794
     10784     10783     10785     10784     10783     10786     10785     10783     10786
     10786     10788     10789     10786     10794     10795     10786     10794     10796
     10786     10794     10797     10787     10786     10788     10787     10786     10794
     10788     10786     10794     10788     10789     10790     10788     10789     10791
     10789     10791     10792     10789     10791     10793     10789     10791     10803
     10790     10789     10791     10791     10803     10804     10791     10803     10805
     10791     10803     10806     10792     10791     10793     10792     10791     10803
     10793     10791     10803     10794     10797     10798     10795     10794     10796
     10795     10794     10797     10796     10794     10797     10797     10798     10799
     10797     10798     10800     10798     10800     10801     10798     10800     10802
     10798     10800     10850     10799     10798     10800     10800     10850     10851
     10800     10850     10852     10800     10850     10853     10801     10800     10802
     10801     10800     10850     10802     10800     10850     10803     10806     10807
     10803     10806     10808     10803     10806     10809     10804     10803     10805
     10804     10803     10806     10805     10803     10806     10806     10809     10810
     10806     10809     10811     10807     10806     10808     10807     10806     10809
     10808     10806     10809     10809     10811     10812     10809     10811     10813
     10810     10809     10811     10811     10813     10814     10811     10813     10815
     10811     10813     10816     10812     10811     10813     10813     10816     10817
     10813     10816     10818     10814     10813     10815     10814     10813     10816
     10815     10813     10816     10816     10818     10819     10816     10818     10820
     10817     10816     10818     10818     10820     10821     10818     10820     10822
     10818     10820     10823     10819     10818     10820     10820     10823     10824
     10820     10823     10825     10821     10820     10822     10821     10820     10823
     10822     10820     10823     10823     10825     10826     10823     10825     10827
     10824     10823     10825     10825     10827     10828     10825     10827     10829
     10825     10827     10830     10826     10825     10827     10827     10830     10831
     10827     10830     10832     10828     10827     10829     10828     10827     10830
     10829     10827     10830     10830     10832     10833     10830     10832     10834
     10831     10830     10832     10832     10834     10835     10832     10834     10836
     10832     10834     10837     10833     10832     10834     10834     10837     10838
     10834     10837     10839     10834     10837     10840     10835     10834     10836
     10835     10834     10837     10836     10834     10837     10837     10840     10841
     10837     10840     10842     10837     10840     10843     10838     10837     10839
     10838     10837     10840     10839     10837     10840     10840     10843     10844
     10840     10843     10845     10840     10843     10846     10841     10840     10842
     10841     10840     10843     10842     10840     10843     10843     10846     10847
     10843     10846     10848     10843     10846     10849     10844     10843     10845
     10844     10843     10846     10845     10843     10846     10847     10846     10848
     10847     10846     10849     10848     10846     10849     10850     10853     10854
     10850     10853     10855     10850     10853     10856     10851     10850     10852
     10851     10850     10853     10852     10850     10853     10853     10856     10857
     10853     10856     10858     10853     10856     10859     10854     10853     10855
     10854     10853     10856     10855     10853     10856     10856     10859     10860
     10856     10859     10861     10856     10859     10862     10857     10856     10858
     10857     10856     10859     10858     10856     10859     10859     10862     10863
     10859     10862     10864     10859     10862     10865     10860     10859     10861
     10860     10859     10862     10861     10859     10862     10862     10865     10866
     10862     10865     10867     10862     10865     10868     10863     10862     10864
     10863     10862     10865     10864     10862     10865     10865     10868     10869
     10865     10868     10870     10865     10868     10871     10866     10865     10867
     10866     10865     10868     10867     10865     10868     10868     10871     10872
     10868     10871     10873     10868     10871     10874     10869     10868     10870
     10869     10868     10871     10870     10868     10871     10871     10874     10875
     10871     10874     10876     10871     10874     10877     10872     10871     10873
     10872     10871     10874     10873     10871     10874     10874     10877     10878
     10874     10877     10879     10874     10877     10880     10875     10874     10876
     10875     10874     10877     10876     10874     10877     10877     10880     10881
     10877     10880     10882     10877     10880     10883     10878     10877     10879
     10878     10877     10880     10879     10877     10880     10880     10883     10884
     10880     10883     10885     10880     10883     10886     10881     10880     10882
     10881     10880     10883     10882     10880     10883     10883     10886     10887
     10883     10886     10888     10883     10886     10889     10884     10883     10885
     10884     10883     10886     10885     10883     10886     10886     10889     10890
     10886     10889     10891     10886     10889     10892     10887     10886     10888
     10887     10886     10889     10888     10886     10889     10889     10892     10893
     10889     10892     10894     10889     10892     10895     10890     10889     10891
     10890     10889     10892     10891     10889     10892     10892     10895     10896
     10892     10895     10897     10892     10895     10898     10893     10892     10894
     10893     10892     10895     10894     10892     10895     10896     10895     10897
     10896     10895     10898     10897     10895     10898     10899     10903     10904
     10899     10903     10905     10899     10903     10906     10900     10899     10901
     10900     10899     10902     10900     10899     10903     10901     10899     10902
     10901     10899     10903     10902     10899     10903     10903     10906     10907
     10903     10906     10908     10903     10906     10912     10904     10903     10905
     10904     10903     10906     10905     10903     10906     10906     10912     10909
     10907     10906     10908     10907     10906     10912     10908     10906     10912
     10909     10913     10914     10910     10909     10911     10910     10909     10912
     10910     10909     10913     10911     10909     10912     10911     10909     10913
     10912     10909     10913     10913     10914     10915     10913     10914     10916
     10913     10914     10917     10914     10917     10918     10914     10917     10919
     10914     10917     10925     10915     10914     10916     10915     10914     10917
     10916     10914     10917     10917     10919     10920     10917     10925     10926
     10917     10925     10927     10917     10925     10928     10918     10917     10919
     10918     10917     10925     10919     10917     10925     10919     10920     10921
     10919     10920     10922     10920     10922     10923     10920     10922     10924
     10920     10922     10934     10921     10920     10922     10922     10934     10935
     10922     10934     10936     10922     10934     10937     10923     10922     10924
     10923     10922     10934     10924     10922     10934     10925     10928     10929
     10926     10925     10927     10926     10925     10928     10927     10925     10928
     10928     10929     10930     10928     10929     10931     10929     10931     10932
     10929     10931     10933     10929     10931     10981     10930     10929     10931
     10931     10981     10982     10931     10981     10983     10931     10981     10984
     10932     10931     10933     10932     10931     10981     10933     10931     10981
     10934     10937     10938     10934     10937     10939     10934     10937     10940
     10935     10934     10936     10935     10934     10937     10936     10934     10937
     10937     10940     10941     10937     10940     10942     10938     10937     10939
     10938     10937     10940     10939     10937     10940     10940     10942     10943
     10940     10942     10944     10941     10940     10942     10942     10944     10945
     10942     10944     10946     10942     10944     10947     10943     10942     10944
     10944     10947     10948     10944     10947     10949     10945     10944     10946
     10945     10944     10947     10946     10944     10947     10947     10949     10950
     10947     10949     10951     10948     10947     10949     10949     10951     10952
     10949     10951     10953     10949     10951     10954     10950     10949     10951
     10951     10954     10955     10951     10954     10956     10952     10951     10953
     10952     10951     10954     10953     10951     10954     10954     10956     10957
     10954     10956     10958     10955     10954     10956     10956     10958     10959
     10956     10958     10960     10956     10958     10961     10957     10956     10958
     10958     10961     10962     10958     10961     10963     10959     10958     10960
     10959     10958     10961     10960     10958     10961     10961     10963     10964
     10961     10963     10965     10962     10961     10963     10963     10965     10966
     10963     10965     10967     10963     10965     10968     10964     10963     10965
     10965     10968     10969     10965     10968     10970     10965     10968     10971
     10966     10965     10967     10966     10965     10968     10967     10965     10968
     10968     10971     10972     10968     10971     10973     10968     10971     10974
     10969     10968     10970     10969     10968     10971     10970     10968     10971
     10971     10974     10975     10971     10974     10976     10971     10974     10977
     10972     10971     10973     10972     10971     10974     10973     10971     10974
     10974     10977     10978     10974     10977     10979     10974     10977     10980
     10975     10974     10976     10975     10974     10977     10976     10974     10977
     10978     10977     10979     10978     10977     10980     10979     10977     10980
     10981     10984     10985     10981     10984     10986     10981     10984     10987
     10982     10981     10983     10982     10981     10984     10983     10981     10984
     10984     10987     10988     10984     10987     10989     10984     10987     10990
     10985     10984     10986     10985     10984     10987     10986     10984     10987
     10987     10990     10991     10987     10990     10992     10987     10990     10993
     10988     10987     10989     10988     10987     10990     10989     10987     10990
     10990     10993     10994     10990     10993     10995     10990     10993     10996
     10991     10990     10992     10991     10990     10993     10992     10990     10993
     10993     10996     10997     10993     10996     10998     10993     10996     10999
     10994     10993     10995     10994     10993     10996     10995     10993     10996
     10996     10999     11000     10996     10999     11001     10996     10999     11002
     10997     10996     10998     10997     10996     10999     10998     10996     10999
     10999     11002     11003     10999     11002     11004     10999     11002     11005
     11000     10999     11001     11000     10999     11002     11001     10999     11002
     11002     11005     11006     11002     11005     11007     11002     11005     11008
     11003     11002     11004     11003     11002     11005     11004     11002     11005
     11005     11008     11009     11005     11008     11010     11005     11008     11011
     11006     11005     11007     11006     11005     11008     11007     11005     11008
     11008     11011     11012     11008     11011     11013     11008     11011     11014
     11009     11008     11010     11009     11008     11011     11010     11008     11011
     11011     11014     11015     11011     11014     11016     11011     11014     11017
     11012     11011     11013     11012     11011     11014     11013     11011     11014
     11014     11017     11018     11014     11017     11019     11014     11017     11020
     11015     11014     11016     11015     11014     11017     11016     11014     11017
     11017     11020     11021     11017     11020     11022     11017     11020     11023
     11018     11017     11019     11018     11017     11020     11019     11017     11020
     11020     11023     11024     11020     11023     11025     11020     11023     11026
     11021     11020     11022     11021     11020     11023     11022     11020     11023
     11023     11026     11027     11023     11026     11028     11023     11026     11029
     11024     11023     11025     11024     11023     11026     11025     11023     11026
     11027     11026     11028     11027     11026     11029     11028     11026     11029
     11030     11034     11035     11030     11034     11036     11030     11034     11037
     11031     11030     11032     11031     11030     11033     11031     11030     11034
     11032     11030     11033     11032     11030     11034     11033     11030     11034
     11034     11037     11038     11034     11037     11039     11034     11037     11043
     11035     11034     11036     11035     11034     11037     11036     11034     11037
     11037     11043     11040     11038     11037     11039     11038     11037     11043
     11039     11037     11043     11040     11044     11045     11041     11040     11042
     11041     11040     11043     11041     11040     11044     11042     11040     11043
     11042     11040     11044     11043     11040     11044     11044     11045     11046
     11044     11045     11047     11044     11045     11048     11045     11048     11049
     11045     11048     11050     11045     11048     11056     11046     11045     11047
     11046     11045     11048     11047     11045     11048     11048     11050     11051
     11048     11056     11057     11048     11056     11058     11048     11056     11059
     11049     11048     11050     11049     11048     11056     11050     11048     11056
     11050     11051     11052     11050     11051     11053     11051     11053     11054
     11051     11053     11055     11051     11053     11065     11052     11051     11053
     11053     11065     11066     11053     11065     11067     11053     11065     11068
     11054     11053     11055     11054     11053     11065     11055     11053     11065
     11056     11059     11060     11057     11056     11058     11057     11056     11059
     11058     11056     11059     11059     11060     11061     11059     11060     11062
     11060     11062     11063     11060     11062     11064     11060     11062     11112
     11061     11060     11062     11062     11112     11113     11062     11112     11114
     11062     11112     11115     11063     11062     11064     11063     11062     11112
     11064     11062     11112     11065     11068     11069     11065     11068     11070
     11065     11068     11071     11066     11065     11067     11066     11065     11068
     11067     11065     11068     11068     11071     11072     11068     11071     11073
     11068     11071     11074     11069     11068     11070     11069     11068     11071
     11070     11068     11071     11071     11074     11075     11071     11074     11076
     11071     11074     11077     11072     11071     11073     11072     11071     11074
     11073     11071     11074     11074     11077     11078     11074     11077     11079
     11074     11077     11080     11075     11074     11076     11075     11074     11077
     11076     11074     11077     11077     11080     11081     11077     11080     11082
     11077     11080     11083     11078     11077     11079     11078     11077     11080
     11079     11077     11080     11080     11083     11084     11080     11083     11085
     11081     11080     11082     11081     11080     11083     11082     11080     11083
     11083     11085     11086     11083     11085     11087     11084     11083     11085
     11085     11087     11088     11085     11087     11089     11085     11087     11090
     11086     11085     11087     11087     11090     11091     11087     11090     11092
     11087     11090     11093     11088     11087     11089     11088     11087     11090
     11089     11087     11090     11090     11093     11094     11090     11093     11095
     11090     11093     11096     11091     11090     11092     11091     11090     11093
     11092     11090     11093     11093     11096     11097     11093     11096     11098
     11093     11096     11099     11094     11093     11095     11094     11093     11096
     11095     11093     11096     11096     11099     11100     11096     11099     11101
     11096     11099     11102     11097     11096     11098     11097     11096     11099
     11098     11096     11099     11099     11102     11103     11099     11102     11104
     11099     11102     11105     11100     11099     11101     11100     11099     11102
     11101     11099     11102     11102     11105     11106     11102     11105     11107
     11102     11105     11108     11103     11102     11104     11103     11102     11105
     11104     11102     11105     11105     11108     11109     11105     11108     11110
     11105     11108     11111     11106     11105     11107     11106     11105     11108
     11107     11105     11108     11109     11108     11110     11109     11108     11111
     11110     11108     11111     11112     11115     11116     11112     11115     11117
     11112     11115     11118     11113     11112     11114     11113     11112     11115
     11114     11112     11115     11115     11118     11119     11115     11118     11120
     11115     11118     11121     11116     11115     11117     11116     11115     11118
     11117     11115     11118     11118     11121     11122     11118     11121     11123
     11118     11121     11124     11119     11118     11120     11119     11118     11121
     11120     11118     11121     11121     11124     11125     11121     11124     11126
     11121     11124     11127     11122     11121     11123     11122     11121     11124
     11123     11121     11124     11124     11127     11128     11124     11127     11129
     11124     11127     11130     11125     11124     11126     11125     11124     11127
     11126     11124     11127     11127     11130     11131     11127     11130     11132
     11127     11130     11133     11128     11127     11129     11128     11127     11130
     11129     11127     11130     11130     11133     11134     11130     11133     11135
     11130     11133     11136     11131     11130     11132     11131     11130     11133
     11132     11130     11133     11133     11136     11137     11133     11136     11138
     11133     11136     11139     11134     11133     11135     11134     11133     11136
     11135     11133     11136     11136     11139     11140     11136     11139     11141
     11136     11139     11142     11137     11136     11138     11137     11136     11139
     11138     11136     11139     11139     11142     11143     11139     11142     11144
     11139     11142     11145     11140     11139     11141     11140     11139     11142
     11141     11139     11142     11142     11145     11146     11142     11145     11147
     11142     11145     11148     11143     11142     11144     11143     11142     11145
     11144     11142     11145     11145     11148     11149     11145     11148     11150
     11145     11148     11151     11146     11145     11147     11146     11145     11148
     11147     11145     11148     11148     11151     11152     11148     11151     11153
     11148     11151     11154     11149     11148     11150     11149     11148     11151
     11150     11148     11151     11151     11154     11155     11151     11154     11156
     11151     11154     11157     11152     11151     11153     11152     11151     11154
     11153     11151     11154     11154     11157     11158     11154     11157     11159
     11154     11157     11160     11155     11154     11156     11155     11154     11157
     11156     11154     11157     11158     11157     11159     11158     11157     11160
     11159     11157     11160     11161     11163     11164     11161     11165     11166
     11161     11165     11167     11161     11165     11168     11161     11207     11204
     11161     11207     11208     11161     11207     11209     11162     11161     11163
     11162     11161     11165     11162     11161     11207     11163     11161     11165
     11163     11161     11207     11165     11161     11207     11165     11168     11169
     11165     11168     11199     11166     11165     11167     11166     11165     11168
     11167     11165     11168     11168     11169     11170     11168     11169     11171
     11168     11199     11197     11168     11199     11200     11168     11199     11204
     11169     11168     11199     11169     11171     11172     11169     11171     11173
     11169     11171     11174     11170     11169     11171     11171     11174     11175
     11171     11174     11176     11171     11174     11197     11172     11171     11173
     11172     11171     11174     11173     11171     11174     11174     11176     11177
     11174     11176     11178     11174     11176     11186     11174     11197     11194
     11174     11197     11198     11174     11197     11199     11175     11174     11176
     11175     11174     11197     11176     11174     11197     11176     11178     11179
     11176     11178     11180     11176     11178     11181     11176     11186     11184
     11176     11186     11187     11176     11186     11191     11177     11176     11178
     11177     11176     11186     11178     11176     11186     11178     11181     11182
     11178     11181     11183     11178     11181     11184     11179     11178     11180
     11179     11178     11181     11180     11178     11181     11181     11184     11185
     11181     11184     11186     11181     11184     11210     11182     11181     11183
     11182     11181     11184     11183     11181     11184     11184     11186     11187
     11184     11186     11191     11184     11210     11211     11184     11210     11212
     11184     11210     11216     11185     11184     11186     11185     11184     11210
     11186     11184     11210     11186     11187     11188     11186     11187     11189
     11186     11187     11190     11186     11191     11192     11186     11191     11193
     11186     11191     11194     11187     11186     11191     11188     11187     11189
     11188     11187     11190     11189     11187     11190     11191     11194     11195
     11191     11194     11196     11191     11194     11197     11192     11191     11193
     11192     11191     11194     11193     11191     11194     11194     11197     11198
     11194     11197     11199     11195     11194     11196     11195     11194     11197
     11196     11194     11197     11197     11199     11200     11197     11199     11204
     11198     11197     11199     11199     11200     11201     11199     11200     11202
     11199     11200     11203     11199     11204     11205     11199     11204     11206
     11199     11204     11207     11200     11199     11204     11201     11200     11202
     11201     11200     11203     11202     11200     11203     11204     11207     11208
     11204     11207     11209     11205     11204     11206     11205     11204     11207
     11206     11204     11207     11208     11207     11209     11210     11212     11213
     11210     11212     11214     11210     11212     11215     11210     11216     11217
     11210     11216     11218     11210     11216     11219     11211     11210     11212
     11211     11210     11216     11212     11210     11216     11213     11212     11214
     11213     11212     11215     11214     11212     11215     11216     11219     11220
     11216     11219     11221     11216     11219     11222     11217     11216     11218
     11217     11216     11219     11218     11216     11219     11219     11222     11223
     11219     11222     11224     11219     11222     11225     11220     11219     11221
     11220     11219     11222     11221     11219     11222     11222     11225     11226
     11222     11225     11227     11222     11225     11231     11223     11222     11224
     11223     11222     11225     11224     11222     11225     11225     11227     11228
     11225     11227     11229     11225     11227     11230     11225     11231     11232
     11225     11231     11233     11225     11231     11234     11226     11225     11227
     11226     11225     11231     11227     11225     11231     11228     11227     11229
     11228     11227     11230     11229     11227     11230     11232     11231     11233
     11232     11231     11234     11233     11231     11234     11235     11237     11238
     11235     11239     11240     11235     11239     11241     11235     11239     11242
     11235     11281     11278     11235     11281     11282     11235     11281     11283
     11236     11235     11237     11236     11235     11239     11236     11235     11281
     11237     11235     11239     11237     11235     11281     11239     11235     11281
     11239     11242     11243     11239     11242     11273     11240     11239     11241
     11240     11239     11242     11241     11239     11242     11242     11243     11244
     11242     11243     11245     11242     11273     11271     11242     11273     11274
     11242     11273     11278     11243     11242     11273     11243     11245     11246
     11243     11245     11247     11243     11245     11248     11244     11243     11245
     11245     11248     11249     11245     11248     11250     11245     11248     11271
     11246     11245     11247     11246     11245     11248     11247     11245     11248
     11248     11250     11251     11248     11250     11252     11248     11250     11260
     11248     11271     11268     11248     11271     11272     11248     11271     11273
     11249     11248     11250     11249     11248     11271     11250     11248     11271
     11250     11252     11253     11250     11252     11254     11250     11252     11255
     11250     11260     11258     11250     11260     11261     11250     11260     11265
     11251     11250     11252     11251     11250     11260     11252     11250     11260
     11252     11255     11256     11252     11255     11257     11252     11255     11258
     11253     11252     11254     11253     11252     11255     11254     11252     11255
     11255     11258     11259     11255     11258     11260     11255     11258     11284
     11256     11255     11257     11256     11255     11258     11257     11255     11258
     11258     11260     11261     11258     11260     11265     11258     11284     11285
     11258     11284     11286     11258     11284     11290     11259     11258     11260
     11259     11258     11284     11260     11258     11284     11260     11261     11262
     11260     11261     11263     11260     11261     11264     11260     11265     11266
     11260     11265     11267     11260     11265     11268     11261     11260     11265
     11262     11261     11263     11262     11261     11264     11263     11261     11264
     11265     11268     11269     11265     11268     11270     11265     11268     11271
     11266     11265     11267     11266     11265     11268     11267     11265     11268
     11268     11271     11272     11268     11271     11273     11269     11268     11270
     11269     11268     11271     11270     11268     11271     11271     11273     11274
     11271     11273     11278     11272     11271     11273     11273     11274     11275
     11273     11274     11276     11273     11274     11277     11273     11278     11279
     11273     11278     11280     11273     11278     11281     11274     11273     11278
     11275     11274     11276     11275     11274     11277     11276     11274     11277
     11278     11281     11282     11278     11281     11283     11279     11278     11280
     11279     11278     11281     11280     11278     11281     11282     11281     11283
     11284     11286     11287     11284     11286     11288     11284     11286     11289
     11284     11290     11291     11284     11290     11292     11284     11290     11293
     11285     11284     11286     11285     11284     11290     11286     11284     11290
     11287     11286     11288     11287     11286     11289     11288     11286     11289
     11290     11293     11294     11290     11293     11295     11290     11293     11296
     11291     11290     11292     11291     11290     11293     11292     11290     11293
     11293     11296     11297     11293     11296     11298     11293     11296     11299
     11294     11293     11295     11294     11293     11296     11295     11293     11296
     11296     11299     11300     11296     11299     11301     11296     11299     11305
     11297     11296     11298     11297     11296     11299     11298     11296     11299
     11299     11301     11302     11299     11301     11303     11299     11301     11304
     11299     11305     11306     11299     11305     11307     11299     11305     11308
     11300     11299     11301     11300     11299     11305     11301     11299     11305
     11302     11301     11303     11302     11301     11304     11303     11301     11304
     11306     11305     11307     11306     11305     11308     11307     11305     11308
     11309     11310     11311     11309     11310     11312     11309     11310     11313
     11309     11314     11315     11309     11314     11316     11309     11314     11317
     11309     11318     11319     11309     11318     11320     11309     11318     11321
     11309     11322     11323     11309     11322     11324     11309     11322     11325
     11310     11309     11314     11310     11309     11318     11310     11309     11322
     11311     11310     11312     11311     11310     11313     11312     11310     11313
     11314     11309     11318     11314     11309     11322     11315     11314     11316
     11315     11314     11317     11316     11314     11317     11318     11309     11322
     11319     11318     11320     11319     11318     11321     11320     11318     11321
     11322     11325     11326     11322     11325     11327     11322     11325     11332
     11323     11322     11324     11323     11322     11325     11324     11322     11325
     11325     11332     11328     11326     11325     11327     11326     11325     11332
     11327     11325     11332     11328     11331     11333     11329     11328     11330
     11329     11328     11331     11329     11328     11332     11330     11328     11331
     11330     11328     11332     11331     11328     11332     11331     11333     11334
     11331     11333     11335     11331     11333     11338     11333     11338     11336
     11333     11338     11339     11333     11338     11340     11334     11333     11335
     11334     11333     11338     11335     11333     11338     11336     11338     11339
     11336     11338     11340     11336     11388     11389     11336     11388     11390
     11337     11336     11338     11337     11336     11388     11338     11336     11388
     11338     11340     11341     11338     11340     11342     11338     11340     11344
     11339     11338     11340     11340     11342     11343     11340     11344     11345
     11340     11344     11346     11341     11340     11342     11341     11340     11344
     11342     11340     11344     11344     11346     11347     11344     11346     11348
     11345     11344     11346     11346     11348     11349     11346     11348     11350
     11346     11348     11351     11347     11346     11348     11348     11351     11352
     11348     11351     11353     11348     11351     11354     11349     11348     11350
     11349     11348     11351     11350     11348     11351     11351     11354     11355
     11351     11354     11356     11351     11354     11357     11352     11351     11353
     11352     11351     11354     11353     11351     11354     11354     11357     11358
     11354     11357     11359     11354     11357     11360     11355     11354     11356
     11355     11354     11357     11356     11354     11357     11357     11360     11361
     11357     11360     11362     11357     11360     11363     11358     11357     11359
     11358     11357     11360     11359     11357     11360     11360     11363     11364
     11360     11363     11365     11360     11363     11366     11361     11360     11362
     11361     11360     11363     11362     11360     11363     11363     11366     11367
     11363     11366     11368     11363     11366     11369     11364     11363     11365
     11364     11363     11366     11365     11363     11366     11366     11369     11370
     11366     11369     11371     11366     11369     11372     11367     11366     11368
     11367     11366     11369     11368     11366     11369     11369     11372     11373
     11369     11372     11374     11369     11372     11375     11370     11369     11371
     11370     11369     11372     11371     11369     11372     11372     11375     11376
     11372     11375     11377     11372     11375     11378     11373     11372     11374
     11373     11372     11375     11374     11372     11375     11375     11378     11379
     11375     11378     11380     11375     11378     11381     11376     11375     11377
     11376     11375     11378     11377     11375     11378     11378     11381     11382
     11378     11381     11383     11378     11381     11384     11379     11378     11380
     11379     11378     11381     11380     11378     11381     11381     11384     11385
     11381     11384     11386     11381     11384     11387     11382     11381     11383
     11382     11381     11384     11383     11381     11384     11385     11384     11386
     11385     11384     11387     11386     11384     11387     11388     11390     11391
     11388     11390     11392     11388     11390     11393     11389     11388     11390
     11390     11393     11394     11390     11393     11395     11390     11393     11396
     11391     11390     11392     11391     11390     11393     11392     11390     11393
     11393     11396     11397     11393     11396     11398     11393     11396     11399
     11394     11393     11395     11394     11393     11396     11395     11393     11396
     11396     11399     11400     11396     11399     11401     11396     11399     11402
     11397     11396     11398     11397     11396     11399     11398     11396     11399
     11399     11402     11403     11399     11402     11404     11399     11402     11405
     11400     11399     11401     11400     11399     11402     11401     11399     11402
     11402     11405     11406     11402     11405     11407     11402     11405     11408
     11403     11402     11404     11403     11402     11405     11404     11402     11405
     11405     11408     11409     11405     11408     11410     11405     11408     11411
     11406     11405     11407     11406     11405     11408     11407     11405     11408
     11408     11411     11412     11408     11411     11413     11409     11408     11410
     11409     11408     11411     11410     11408     11411     11411     11413     11414
     11411     11413     11415     11412     11411     11413     11413     11415     11416
     11413     11415     11417     11413     11415     11418     11414     11413     11415
     11415     11418     11419     11415     11418     11420     11415     11418     11421
     11416     11415     11417     11416     11415     11418     11417     11415     11418
     11418     11421     11422     11418     11421     11423     11418     11421     11424
     11419     11418     11420     11419     11418     11421     11420     11418     11421
     11421     11424     11425     11421     11424     11426     11421     11424     11427
     11422     11421     11423     11422     11421     11424     11423     11421     11424
     11424     11427     11428     11424     11427     11429     11424     11427     11430
     11425     11424     11426     11425     11424     11427     11426     11424     11427
     11427     11430     11431     11427     11430     11432     11427     11430     11433
     11428     11427     11429     11428     11427     11430     11429     11427     11430
     11430     11433     11434     11430     11433     11435     11430     11433     11436
     11431     11430     11432     11431     11430     11433     11432     11430     11433
     11433     11436     11437     11433     11436     11438     11433     11436     11439
     11434     11433     11435     11434     11433     11436     11435     11433     11436
     11437     11436     11438     11437     11436     11439     11438     11436     11439
     11440     11441     11442     11440     11441     11443     11440     11441     11444
     11440     11445     11446     11440     11445     11447     11440     11445     11448
     11440     11449     11450     11440     11449     11451     11440     11449     11452
     11440     11453     11454     11440     11453     11455     11440     11453     11456
     11441     11440     11445     11441     11440     11449     11441     11440     11453
     11442     11441     11443     11442     11441     11444     11443     11441     11444
     11445     11440     11449     11445     11440     11453     11446     11445     11447
     11446     11445     11448     11447     11445     11448     11449     11440     11453
     11450     11449     11451     11450     11449     11452     11451     11449     11452
     11453     11456     11457     11453     11456     11458     11453     11456     11462
     11454     11453     11455     11454     11453     11456     11455     11453     11456
     11456     11462     11459     11457     11456     11458     11457     11456     11462
     11458     11456     11462     11459     11463     11464     11460     11459     11461
     11460     11459     11462     11460     11459     11463     11461     11459     11462
     11461     11459     11463     11462     11459     11463     11463     11464     11465
     11463     11464     11466     11463     11464     11467     11464     11467     11468
     11464     11467     11469     11464     11467     11475     11465     11464     11466
     11465     11464     11467     11466     11464     11467     11467     11469     11470
     11467     11475     11476     11467     11475     11477     11467     11475     11478
     11468     11467     11469     11468     11467     11475     11469     11467     11475
     11469     11470     11471     11469     11470     11472     11470     11472     11473
     11470     11472     11474     11470     11472     11484     11471     11470     11472
     11472     11484     11485     11472     11484     11486     11472     11484     11487
     11473     11472     11474     11473     11472     11484     11474     11472     11484
     11475     11478     11479     11476     11475     11477     11476     11475     11478
     11477     11475     11478     11478     11479     11480     11478     11479     11481
     11479     11481     11482     11479     11481     11483     11479     11481     11529
     11480     11479     11481     11481     11529     11530     11481     11529     11531
     11481     11529     11532     11482     11481     11483     11482     11481     11529
     11483     11481     11529     11484     11487     11488     11484     11487     11489
     11484     11487     11490     11485     11484     11486     11485     11484     11487
     11486     11484     11487     11487     11490     11491     11487     11490     11492
     11487     11490     11493     11488     11487     11489     11488     11487     11490
     11489     11487     11490     11490     11493     11494     11490     11493     11495
     11490     11493     11496     11491     11490     11492     11491     11490     11493
     11492     11490     11493     11493     11496     11497     11493     11496     11498
     11493     11496     11499     11494     11493     11495     11494     11493     11496
     11495     11493     11496     11496     11499     11500     11496     11499     11501
     11496     11499     11502     11497     11496     11498     11497     11496     11499
     11498     11496     11499     11499     11502     11503     11499     11502     11504
     11500     11499     11501     11500     11499     11502     11501     11499     11502
     11502     11504     11505     11502     11504     11506     11503     11502     11504
     11504     11506     11507     11504     11506     11508     11504     11506     11509
     11505     11504     11506     11506     11509     11510     11506     11509     11511
     11507     11506     11508     11507     11506     11509     11508     11506     11509
     11509     11511     11512     11509     11511     11513     11510     11509     11511
     11511     11513     11514     11511     11513     11515     11511     11513     11516
     11512     11511     11513     11513     11516     11517     11513     11516     11518
     11513     11516     11519     11514     11513     11515     11514     11513     11516
     11515     11513     11516     11516     11519     11520     11516     11519     11521
     11516     11519     11522     11517     11516     11518     11517     11516     11519
     11518     11516     11519     11519     11522     11523     11519     11522     11524
     11519     11522     11525     11520     11519     11521     11520     11519     11522
     11521     11519     11522     11522     11525     11526     11522     11525     11527
     11522     11525     11528     11523     11522     11524     11523     11522     11525
     11524     11522     11525     11526     11525     11527     11526     11525     11528
     11527     11525     11528     11529     11532     11533     11529     11532     11534
     11529     11532     11535     11530     11529     11531     11530     11529     11532
     11531     11529     11532     11532     11535     11536     11532     11535     11537
     11532     11535     11538     11533     11532     11534     11533     11532     11535
     11534     11532     11535     11535     11538     11539     11535     11538     11540
     11535     11538     11541     11536     11535     11537     11536     11535     11538
     11537     11535     11538     11538     11541     11542     11538     11541     11543
     11538     11541     11544     11539     11538     11540     11539     11538     11541
     11540     11538     11541     11541     11544     11545     11541     11544     11546
     11541     11544     11547     11542     11541     11543     11542     11541     11544
     11543     11541     11544     11544     11547     11548     11544     11547     11549
     11544     11547     11550     11545     11544     11546     11545     11544     11547
     11546     11544     11547     11547     11550     11551     11547     11550     11552
     11547     11550     11553     11548     11547     11549     11548     11547     11550
     11549     11547     11550     11550     11553     11554     11550     11553     11555
     11550     11553     11556     11551     11550     11552     11551     11550     11553
     11552     11550     11553     11553     11556     11557     11553     11556     11558
     11553     11556     11559     11554     11553     11555     11554     11553     11556
     11555     11553     11556     11556     11559     11560     11556     11559     11561
     11556     11559     11562     11557     11556     11558     11557     11556     11559
     11558     11556     11559     11559     11562     11563     11559     11562     11564
     11559     11562     11565     11560     11559     11561     11560     11559     11562
     11561     11559     11562     11562     11565     11566     11562     11565     11567
     11562     11565     11568     11563     11562     11564     11563     11562     11565
     11564     11562     11565     11565     11568     11569     11565     11568     11570
     11565     11568     11571     11566     11565     11567     11566     11565     11568
     11567     11565     11568     11568     11571     11572     11568     11571     11573
     11568     11571     11574     11569     11568     11570     11569     11568     11571
     11570     11568     11571     11571     11574     11575     11571     11574     11576
     11571     11574     11577     11572     11571     11573     11572     11571     11574
     11573     11571     11574     11575     11574     11576     11575     11574     11577
     11576     11574     11577     11578     11582     11583     11578     11582     11584
     11578     11582     11587     11579     11578     11580     11579     11578     11581
     11579     11578     11582     11580     11578     11581     11580     11578     11582
     11581     11578     11582     11582     11584     11585     11582     11584     11586
     11582     11587     11588     11582     11587     11589     11582     11587     11593
     11583     11582     11584     11583     11582     11587     11584     11582     11587
     11585     11584     11586     11587     11593     11590     11588     11587     11589
     11588     11587     11593     11589     11587     11593     11590     11594     11595
     11591     11590     11592     11591     11590     11593     11591     11590     11594
     11592     11590     11593     11592     11590     11594     11593     11590     11594
     11594     11595     11596     11594     11595     11597     11594     11595     11598
     11595     11598     11599     11595     11598     11600     11595     11598     11606
     11596     11595     11597     11596     11595     11598     11597     11595     11598
     11598     11600     11601     11598     11606     11607     11598     11606     11608
     11598     11606     11609     11599     11598     11600     11599     11598     11606
     11600     11598     11606     11600     11601     11602     11600     11601     11603
     11601     11603     11604     11601     11603     11605     11601     11603     11615
     11602     11601     11603     11603     11615     11616     11603     11615     11617
     11603     11615     11618     11604     11603     11605     11604     11603     11615
     11605     11603     11615     11606     11609     11610     11607     11606     11608
     11607     11606     11609     11608     11606     11609     11609     11610     11611
     11609     11610     11612     11610     11612     11613     11610     11612     11614
     11610     11612     11662     11611     11610     11612     11612     11662     11663
     11612     11662     11664     11612     11662     11665     11613     11612     11614
     11613     11612     11662     11614     11612     11662     11615     11618     11619
     11615     11618     11620     11615     11618     11621     11616     11615     11617
     11616     11615     11618     11617     11615     11618     11618     11621     11622
     11618     11621     11623     11619     11618     11620     11619     11618     11621
     11620     11618     11621     11621     11623     11624     11621     11623     11625
     11622     11621     11623     11623     11625     11626     11623     11625     11627
     11623     11625     11628     11624     11623     11625     11625     11628     11629
     11625     11628     11630     11626     11625     11627     11626     11625     11628
     11627     11625     11628     11628     11630     11631     11628     11630     11632
     11629     11628     11630     11630     11632     11633     11630     11632     11634
     11630     11632     11635     11631     11630     11632     11632     11635     11636
     11632     11635     11637     11633     11632     11634     11633     11632     11635
     11634     11632     11635     11635     11637     11638     11635     11637     11639
     11636     11635     11637     11637     11639     11640     11637     11639     11641
     11637     11639     11642     11638     11637     11639     11639     11642     11643
     11639     11642     11644     11640     11639     11641     11640     11639     11642
     11641     11639     11642     11642     11644     11645     11642     11644     11646
     11643     11642     11644     11644     11646     11647     11644     11646     11648
     11644     11646     11649     11645     11644     11646     11646     11649     11650
     11646     11649     11651     11646     11649     11652     11647     11646     11648
     11647     11646     11649     11648     11646     11649     11649     11652     11653
     11649     11652     11654     11649     11652     11655     11650     11649     11651
     11650     11649     11652     11651     11649     11652     11652     11655     11656
     11652     11655     11657     11652     11655     11658     11653     11652     11654
     11653     11652     11655     11654     11652     11655     11655     11658     11659
     11655     11658     11660     11655     11658     11661     11656     11655     11657
     11656     11655     11658     11657     11655     11658     11659     11658     11660
     11659     11658     11661     11660     11658     11661     11662     11665     11666
     11662     11665     11667     11662     11665     11668     11663     11662     11664
     11663     11662     11665     11664     11662     11665     11665     11668     11669
     11665     11668     11670     11665     11668     11671     11666     11665     11667
     11666     11665     11668     11667     11665     11668     11668     11671     11672
     11668     11671     11673     11668     11671     11674     11669     11668     11670
     11669     11668     11671     11670     11668     11671     11671     11674     11675
     11671     11674     11676     11671     11674     11677     11672     11671     11673
     11672     11671     11674     11673     11671     11674     11674     11677     11678
     11674     11677     11679     11674     11677     11680     11675     11674     11676
     11675     11674     11677     11676     11674     11677     11677     11680     11681
     11677     11680     11682     11677     11680     11683     11678     11677     11679
     11678     11677     11680     11679     11677     11680     11680     11683     11684
     11680     11683     11685     11680     11683     11686     11681     11680     11682
     11681     11680     11683     11682     11680     11683     11683     11686     11687
     11683     11686     11688     11683     11686     11689     11684     11683     11685
     11684     11683     11686     11685     11683     11686     11686     11689     11690
     11686     11689     11691     11686     11689     11692     11687     11686     11688
     11687     11686     11689     11688     11686     11689     11689     11692     11693
     11689     11692     11694     11689     11692     11695     11690     11689     11691
     11690     11689     11692     11691     11689     11692     11692     11695     11696
     11692     11695     11697     11692     11695     11698     11693     11692     11694
     11693     11692     11695     11694     11692     11695     11695     11698     11699
     11695     11698     11700     11695     11698     11701     11696     11695     11697
     11696     11695     11698     11697     11695     11698     11698     11701     11702
     11698     11701     11703     11698     11701     11704     11699     11698     11700
     11699     11698     11701     11700     11698     11701     11701     11704     11705
     11701     11704     11706     11701     11704     11707     11702     11701     11703
     11702     11701     11704     11703     11701     11704     11704     11707     11708
     11704     11707     11709     11704     11707     11710     11705     11704     11706
     11705     11704     11707     11706     11704     11707     11708     11707     11709
     11708     11707     11710     11709     11707     11710     11711     11712     11713
     11711     11712     11714     11711     11712     11715     11711     11716     11717
     11711     11716     11718     11711     11716     11719     11711     11720     11721
     11711     11720     11722     11711     11720     11723     11711     11724     11725
     11711     11724     11726     11711     11724     11727     11712     11711     11716
     11712     11711     11720     11712     11711     11724     11713     11712     11714
     11713     11712     11715     11714     11712     11715     11716     11711     11720
     11716     11711     11724     11717     11716     11718     11717     11716     11719
     11718     11716     11719     11720     11711     11724     11721     11720     11722
     11721     11720     11723     11722     11720     11723     11724     11727     11728
     11724     11727     11729     11724     11727     11734     11725     11724     11726
     11725     11724     11727     11726     11724     11727     11727     11734     11730
     11728     11727     11729     11728     11727     11734     11729     11727     11734
     11730     11733     11735     11731     11730     11732     11731     11730     11733
     11731     11730     11734     11732     11730     11733     11732     11730     11734
     11733     11730     11734     11733     11735     11736     11733     11735     11737
     11733     11735     11740     11735     11740     11738     11735     11740     11741
     11735     11740     11742     11736     11735     11737     11736     11735     11740
     11737     11735     11740     11738     11740     11741     11738     11740     11742
     11738     11790     11791     11738     11790     11792     11739     11738     11740
     11739     11738     11790     11740     11738     11790     11740     11742     11743
     11740     11742     11744     11740     11742     11746     11741     11740     11742
     11742     11744     11745     11742     11746     11747     11742     11746     11748
     11743     11742     11744     11743     11742     11746     11744     11742     11746
     11746     11748     11749     11746     11748     11750     11747     11746     11748
     11748     11750     11751     11748     11750     11752     11748     11750     11753
     11749     11748     11750     11750     11753     11754     11750     11753     11755
     11750     11753     11756     11751     11750     11752     11751     11750     11753
     11752     11750     11753     11753     11756     11757     11753     11756     11758
     11753     11756     11759     11754     11753     11755     11754     11753     11756
     11755     11753     11756     11756     11759     11760     11756     11759     11761
     11756     11759     11762     11757     11756     11758     11757     11756     11759
     11758     11756     11759     11759     11762     11763     11759     11762     11764
     11759     11762     11765     11760     11759     11761     11760     11759     11762
     11761     11759     11762     11762     11765     11766     11762     11765     11767
     11762     11765     11768     11763     11762     11764     11763     11762     11765
     11764     11762     11765     11765     11768     11769     11765     11768     11770
     11765     11768     11771     11766     11765     11767     11766     11765     11768
     11767     11765     11768     11768     11771     11772     11768     11771     11773
     11768     11771     11774     11769     11768     11770     11769     11768     11771
     11770     11768     11771     11771     11774     11775     11771     11774     11776
     11771     11774     11777     11772     11771     11773     11772     11771     11774
     11773     11771     11774     11774     11777     11778     11774     11777     11779
     11774     11777     11780     11775     11774     11776     11775     11774     11777
     11776     11774     11777     11777     11780     11781     11777     11780     11782
     11777     11780     11783     11778     11777     11779     11778     11777     11780
     11779     11777     11780     11780     11783     11784     11780     11783     11785
     11780     11783     11786     11781     11780     11782     11781     11780     11783
     11782     11780     11783     11783     11786     11787     11783     11786     11788
     11783     11786     11789     11784     11783     11785     11784     11783     11786
     11785     11783     11786     11787     11786     11788     11787     11786     11789
     11788     11786     11789     11790     11792     11793     11790     11792     11794
     11790     11792     11795     11791     11790     11792     11792     11795     11796
     11792     11795     11797     11792     11795     11798     11793     11792     11794
     11793     11792     11795     11794     11792     11795     11795     11798     11799
     11795     11798     11800     11795     11798     11801     11796     11795     11797
     11796     11795     11798     11797     11795     11798     11798     11801     11802
     11798     11801     11803     11798     11801     11804     11799     11798     11800
     11799     11798     11801     11800     11798     11801     11801     11804     11805
     11801     11804     11806     11801     11804     11807     11802     11801     11803
     11802     11801     11804     11803     11801     11804     11804     11807     11808
     11804     11807     11809     11804     11807     11810     11805     11804     11806
     11805     11804     11807     11806     11804     11807     11807     11810     11811
     11807     11810     11812     11807     11810     11813     11808     11807     11809
     11808     11807     11810     11809     11807     11810     11810     11813     11814
     11810     11813     11815     11811     11810     11812     11811     11810     11813
     11812     11810     11813     11813     11815     11816     11813     11815     11817
     11814     11813     11815     11815     11817     11818     11815     11817     11819
     11815     11817     11820     11816     11815     11817     11817     11820     11821
     11817     11820     11822     11817     11820     11823     11818     11817     11819
     11818     11817     11820     11819     11817     11820     11820     11823     11824
     11820     11823     11825     11820     11823     11826     11821     11820     11822
     11821     11820     11823     11822     11820     11823     11823     11826     11827
     11823     11826     11828     11823     11826     11829     11824     11823     11825
     11824     11823     11826     11825     11823     11826     11826     11829     11830
     11826     11829     11831     11826     11829     11832     11827     11826     11828
     11827     11826     11829     11828     11826     11829     11829     11832     11833
     11829     11832     11834     11829     11832     11835     11830     11829     11831
     11830     11829     11832     11831     11829     11832     11832     11835     11836
     11832     11835     11837     11832     11835     11838     11833     11832     11834
     11833     11832     11835     11834     11832     11835     11835     11838     11839
     11835     11838     11840     11835     11838     11841     11836     11835     11837
     11836     11835     11838     11837     11835     11838     11839     11838     11840
     11839     11838     11841     11840     11838     11841     11842     11846     11847
     11842     11846     11848     11842     11846     11849     11843     11842     11844
     11843     11842     11845     11843     11842     11846     11844     11842     11845
     11844     11842     11846     11845     11842     11846     11846     11849     11850
     11846     11849     11851     11846     11849     11855     11847     11846     11848
     11847     11846     11849     11848     11846     11849     11849     11855     11852
     11850     11849     11851     11850     11849     11855     11851     11849     11855
     11852     11856     11857     11853     11852     11854     11853     11852     11855
     11853     11852     11856     11854     11852     11855     11854     11852     11856
     11855     11852     11856     11856     11857     11858     11856     11857     11859
     11856     11857     11860     11857     11860     11861     11857     11860     11862
     11857     11860     11868     11858     11857     11859     11858     11857     11860
     11859     11857     11860     11860     11862     11863     11860     11868     11869
     11860     11868     11870     11860     11868     11871     11861     11860     11862
     11861     11860     11868     11862     11860     11868     11862     11863     11864
     11862     11863     11865     11863     11865     11866     11863     11865     11867
     11863     11865     11877     11864     11863     11865     11865     11877     11878
     11865     11877     11879     11865     11877     11880     11866     11865     11867
     11866     11865     11877     11867     11865     11877     11868     11871     11872
     11869     11868     11870     11869     11868     11871     11870     11868     11871
     11871     11872     11873     11871     11872     11874     11872     11874     11875
     11872     11874     11876     11872     11874     11924     11873     11872     11874
     11874     11924     11925     11874     11924     11926     11874     11924     11927
     11875     11874     11876     11875     11874     11924     11876     11874     11924
     11877     11880     11881     11877     11880     11882     11877     11880     11883
     11878     11877     11879     11878     11877     11880     11879     11877     11880
     11880     11883     11884     11880     11883     11885     11881     11880     11882
     11881     11880     11883     11882     11880     11883     11883     11885     11886
     11883     11885     11887     11884     11883     11885     11885     11887     11888
     11885     11887     11889     11885     11887     11890     11886     11885     11887
     11887     11890     11891     11887     11890     11892     11888     11887     11889
     11888     11887     11890     11889     11887     11890     11890     11892     11893
     11890     11892     11894     11891     11890     11892     11892     11894     11895
     11892     11894     11896     11892     11894     11897     11893     11892     11894
     11894     11897     11898     11894     11897     11899     11895     11894     11896
     11895     11894     11897     11896     11894     11897     11897     11899     11900
     11897     11899     11901     11898     11897     11899     11899     11901     11902
     11899     11901     11903     11899     11901     11904     11900     11899     11901
     11901     11904     11905     11901     11904     11906     11902     11901     11903
     11902     11901     11904     11903     11901     11904     11904     11906     11907
     11904     11906     11908     11905     11904     11906     11906     11908     11909
     11906     11908     11910     11906     11908     11911     11907     11906     11908
     11908     11911     11912     11908     11911     11913     11908     11911     11914
     11909     11908     11910     11909     11908     11911     11910     11908     11911
     11911     11914     11915     11911     11914     11916     11911     11914     11917
     11912     11911     11913     11912     11911     11914     11913     11911     11914
     11914     11917     11918     11914     11917     11919     11914     11917     11920
     11915     11914     11916     11915     11914     11917     11916     11914     11917
     11917     11920     11921     11917     11920     11922     11917     11920     11923
     11918     11917     11919     11918     11917     11920     11919     11917     11920
     11921     11920     11922     11921     11920     11923     11922     11920     11923
     11924     11927     11928     11924     11927     11929     11924     11927     11930
     11925     11924     11926     11925     11924     11927     11926     11924     11927
     11927     11930     11931     11927     11930     11932     11927     11930     11933
     11928     11927     11929     11928     11927     11930     11929     11927     11930
     11930     11933     11934     11930     11933     11935     11930     11933     11936
     11931     11930     11932     11931     11930     11933     11932     11930     11933
     11933     11936     11937     11933     11936     11938     11933     11936     11939
     11934     11933     11935     11934     11933     11936     11935     11933     11936
     11936     11939     11940     11936     11939     11941     11936     11939     11942
     11937     11936     11938     11937     11936     11939     11938     11936     11939
     11939     11942     11943     11939     11942     11944     11939     11942     11945
     11940     11939     11941     11940     11939     11942     11941     11939     11942
     11942     11945     11946     11942     11945     11947     11942     11945     11948
     11943     11942     11944     11943     11942     11945     11944     11942     11945
     11945     11948     11949     11945     11948     11950     11945     11948     11951
     11946     11945     11947     11946     11945     11948     11947     11945     11948
     11948     11951     11952     11948     11951     11953     11948     11951     11954
     11949     11948     11950     11949     11948     11951     11950     11948     11951
     11951     11954     11955     11951     11954     11956     11951     11954     11957
     11952     11951     11953     11952     11951     11954     11953     11951     11954
     11954     11957     11958     11954     11957     11959     11954     11957     11960
     11955     11954     11956     11955     11954     11957     11956     11954     11957
     11957     11960     11961     11957     11960     11962     11957     11960     11963
     11958     11957     11959     11958     11957     11960     11959     11957     11960
     11960     11963     11964     11960     11963     11965     11960     11963     11966
     11961     11960     11962     11961     11960     11963     11962     11960     11963
     11963     11966     11967     11963     11966     11968     11963     11966     11969
     11964     11963     11965     11964     11963     11966     11965     11963     11966
     11966     11969     11970     11966     11969     11971     11966     11969     11972
     11967     11966     11968     11967     11966     11969     11968     11966     11969
     11970     11969     11971     11970     11969     11972     11971     11969     11972
     11973     11974     11975     11973     11974     11976     11973     11974     11977
     11973     11978     11979     11973     11978     11980     11973     11978     11981
     11973     11982     11983     11973     11982     11984     11973     11982     11985
     11973     11986     11987     11973     11986     11988     11973     11986     11989
     11974     11973     11978     11974     11973     11982     11974     11973     11986
     11975     11974     11976     11975     11974     11977     11976     11974     11977
     11978     11973     11982     11978     11973     11986     11979     11978     11980
     11979     11978     11981     11980     11978     11981     11982     11973     11986
     11983     11982     11984     11983     11982     11985     11984     11982     11985
     11986     11989     11990     11986     11989     11991     11986     11989     11996
     11987     11986     11988     11987     11986     11989     11988     11986     11989
     11989     11996     11992     11990     11989     11991     11990     11989     11996
     11991     11989     11996     11992     11995     11997     11993     11992     11994
     11993     11992     11995     11993     11992     11996     11994     11992     11995
     11994     11992     11996     11995     11992     11996     11995     11997     11998
     11995     11997     11999     11995     11997     12002     11997     12002     12000
     11997     12002     12003     11997     12002     12004     11998     11997     11999
     11998     11997     12002     11999     11997     12002     12000     12002     12003
     12000     12002     12004     12000     12052     12053     12000     12052     12054
     12001     12000     12002     12001     12000     12052     12002     12000     12052
     12002     12004     12005     12002     12004     12006     12002     12004     12008
     12003     12002     12004     12004     12006     12007     12004     12008     12009
     12004     12008     12010     12005     12004     12006     12005     12004     12008
     12006     12004     12008     12008     12010     12011     12008     12010     12012
     12009     12008     12010     12010     12012     12013     12010     12012     12014
     12010     12012     12015     12011     12010     12012     12012     12015     12016
     12012     12015     12017     12012     12015     12018     12013     12012     12014
     12013     12012     12015     12014     12012     12015     12015     12018     12019
     12015     12018     12020     12015     12018     12021     12016     12015     12017
     12016     12015     12018     12017     12015     12018     12018     12021     12022
     12018     12021     12023     12018     12021     12024     12019     12018     12020
     12019     12018     12021     12020     12018     12021     12021     12024     12025
     12021     12024     12026     12021     12024     12027     12022     12021     12023
     12022     12021     12024     12023     12021     12024     12024     12027     12028
     12024     12027     12029     12024     12027     12030     12025     12024     12026
     12025     12024     12027     12026     12024     12027     12027     12030     12031
     12027     12030     12032     12027     12030     12033     12028     12027     12029
     12028     12027     12030     12029     12027     12030     12030     12033     12034
     12030     12033     12035     12030     12033     12036     12031     12030     12032
     12031     12030     12033     12032     12030     12033     12033     12036     12037
     12033     12036     12038     12033     12036     12039     12034     12033     12035
     12034     12033     12036     12035     12033     12036     12036     12039     12040
     12036     12039     12041     12036     12039     12042     12037     12036     12038
     12037     12036     12039     12038     12036     12039     12039     12042     12043
     12039     12042     12044     12039     12042     12045     12040     12039     12041
     12040     12039     12042     12041     12039     12042     12042     12045     12046
     12042     12045     12047     12042     12045     12048     12043     12042     12044
     12043     12042     12045     12044     12042     12045     12045     12048     12049
     12045     12048     12050     12045     12048     12051     12046     12045     12047
     12046     12045     12048     12047     12045     12048     12049     12048     12050
     12049     12048     12051     12050     12048     12051     12052     12054     12055
     12052     12054     12056     12052     12054     12057     12053     12052     12054
     12054     12057     12058     12054     12057     12059     12054     12057     12060
     12055     12054     12056     12055     12054     12057     12056     12054     12057
     12057     12060     12061     12057     12060     12062     12057     12060     12063
     12058     12057     12059     12058     12057     12060     12059     12057     12060
     12060     12063     12064     12060     12063     12065     12060     12063     12066
     12061     12060     12062     12061     12060     12063     12062     12060     12063
     12063     12066     12067     12063     12066     12068     12063     12066     12069
     12064     12063     12065     12064     12063     12066     12065     12063     12066
     12066     12069     12070     12066     12069     12071     12066     12069     12072
     12067     12066     12068     12067     12066     12069     12068     12066     12069
     12069     12072     12073     12069     12072     12074     12069     12072     12075
     12070     12069     12071     12070     12069     12072     12071     12069     12072
     12072     12075     12076     12072     12075     12077     12073     12072     12074
     12073     12072     12075     12074     12072     12075     12075     12077     12078
     12075     12077     12079     12076     12075     12077     12077     12079     12080
     12077     12079     12081     12077     12079     12082     12078     12077     12079
     12079     12082     12083     12079     12082     12084     12079     12082     12085
     12080     12079     12081     12080     12079     12082     12081     12079     12082
     12082     12085     12086     12082     12085     12087     12082     12085     12088
     12083     12082     12084     12083     12082     12085     12084     12082     12085
     12085     12088     12089     12085     12088     12090     12085     12088     12091
     12086     12085     12087     12086     12085     12088     12087     12085     12088
     12088     12091     12092     12088     12091     12093     12088     12091     12094
     12089     12088     12090     12089     12088     12091     12090     12088     12091
     12091     12094     12095     12091     12094     12096     12091     12094     12097
     12092     12091     12093     12092     12091     12094     12093     12091     12094
     12094     12097     12098     12094     12097     12099     12094     12097     12100
     12095     12094     12096     12095     12094     12097     12096     12094     12097
     12097     12100     12101     12097     12100     12102     12097     12100     12103
     12098     12097     12099     12098     12097     12100     12099     12097     12100
     12101     12100     12102     12101     12100     12103     12102     12100     12103
     12104     12106     12107     12104     12108     12109     12104     12108     12110
     12104     12108     12111     12104     12150     12147     12104     12150     12151
     12104     12150     12152     12105     12104     12106     12105     12104     12108
     12105     12104     12150     12106     12104     12108     12106     12104     12150
     12108     12104     12150     12108     12111     12112     12108     12111     12142
     12109     12108     12110     12109     12108     12111     12110     12108     12111
     12111     12112     12113     12111     12112     12114     12111     12142     12140
     12111     12142     12143     12111     12142     12147     12112     12111     12142
     12112     12114     12115     12112     12114     12116     12112     12114     12117
     12113     12112     12114     12114     12117     12118     12114     12117     12119
     12114     12117     12140     12115     12114     12116     12115     12114     12117
     12116     12114     12117     12117     12119     12120     12117     12119     12121
     12117     12119     12129     12117     12140     12137     12117     12140     12141
     12117     12140     12142     12118     12117     12119     12118     12117     12140
     12119     12117     12140     12119     12121     12122     12119     12121     12123
     12119     12121     12124     12119     12129     12127     12119     12129     12130
     12119     12129     12134     12120     12119     12121     12120     12119     12129
     12121     12119     12129     12121     12124     12125     12121     12124     12126
     12121     12124     12127     12122     12121     12123     12122     12121     12124
     12123     12121     12124     12124     12127     12128     12124     12127     12129
     12124     12127     12153     12125     12124     12126     12125     12124     12127
     12126     12124     12127     12127     12129     12130     12127     12129     12134
     12127     12153     12154     12127     12153     12155     12127     12153     12159
     12128     12127     12129     12128     12127     12153     12129     12127     12153
     12129     12130     12131     12129     12130     12132     12129     12130     12133
     12129     12134     12135     12129     12134     12136     12129     12134     12137
     12130     12129     12134     12131     12130     12132     12131     12130     12133
     12132     12130     12133     12134     12137     12138     12134     12137     12139
     12134     12137     12140     12135     12134     12136     12135     12134     12137
     12136     12134     12137     12137     12140     12141     12137     12140     12142
     12138     12137     12139     12138     12137     12140     12139     12137     12140
     12140     12142     12143     12140     12142     12147     12141     12140     12142
     12142     12143     12144     12142     12143     12145     12142     12143     12146
     12142     12147     12148     12142     12147     12149     12142     12147     12150
     12143     12142     12147     12144     12143     12145     12144     12143     12146
     12145     12143     12146     12147     12150     12151     12147     12150     12152
     12148     12147     12149     12148     12147     12150     12149     12147     12150
     12151     12150     12152     12153     12155     12156     12153     12155     12157
     12153     12155     12158     12153     12159     12160     12153     12159     12161
     12153     12159     12162     12154     12153     12155     12154     12153     12159
     12155     12153     12159     12156     12155     12157     12156     12155     12158
     12157     12155     12158     12159     12162     12163     12159     12162     12164
     12159     12162     12165     12160     12159     12161     12160     12159     12162
     12161     12159     12162     12162     12165     12166     12162     12165     12167
     12162     12165     12168     12163     12162     12164     12163     12162     12165
     12164     12162     12165     12165     12168     12169     12165     12168     12170
     12165     12168     12174     12166     12165     12167     12166     12165     12168
     12167     12165     12168     12168     12170     12171     12168     12170     12172
     12168     12170     12173     12168     12174     12175     12168     12174     12176
     12168     12174     12177     12169     12168     12170     12169     12168     12174
     12170     12168     12174     12171     12170     12172     12171     12170     12173
     12172     12170     12173     12175     12174     12176     12175     12174     12177
     12176     12174     12177     12178     12179     12180     12178     12179     12181
     12178     12179     12194     12178     12182     12183     12178     12182     12184
     12178     12182     12185     12178     12186     12187     12178     12186     12188
     12178     12186     12189     12178     12190     12191     12178     12190     12192
     12178     12190     12193     12179     12178     12182     12179     12178     12186
     12179     12178     12190     12179     12194     12195     12179     12194     12196
     12179     12194     12200     12180     12179     12181     12180     12179     12194
     12181     12179     12194     12182     12178     12186     12182     12178     12190
     12183     12182     12184     12183     12182     12185     12184     12182     12185
     12186     12178     12190     12187     12186     12188     12187     12186     12189
     12188     12186     12189     12191     12190     12192     12191     12190     12193
     12192     12190     12193     12194     12200     12197     12195     12194     12196
     12195     12194     12200     12196     12194     12200     12197     12201     12202
     12198     12197     12199     12198     12197     12200     12198     12197     12201
     12199     12197     12200     12199     12197     12201     12200     12197     12201
     12201     12202     12203     12201     12202     12204     12201     12202     12205
     12202     12205     12206     12202     12205     12207     12202     12205     12213
     12203     12202     12204     12203     12202     12205     12204     12202     12205
     12205     12207     12208     12205     12213     12214     12205     12213     12215
     12205     12213     12216     12206     12205     12207     12206     12205     12213
     12207     12205     12213     12207     12208     12209     12207     12208     12210
     12208     12210     12211     12208     12210     12212     12208     12210     12222
     12209     12208     12210     12210     12222     12223     12210     12222     12224
     12210     12222     12225     12211     12210     12212     12211     12210     12222
     12212     12210     12222     12213     12216     12217     12214     12213     12215
     12214     12213     12216     12215     12213     12216     12216     12217     12218
     12216     12217     12219     12217     12219     12220     12217     12219     12221
     12217     12219     12269     12218     12217     12219     12219     12269     12270
     12219     12269     12271     12219     12269     12272     12220     12219     12221
     12220     12219     12269     12221     12219     12269     12222     12225     12226
     12222     12225     12227     12222     12225     12228     12223     12222     12224
     12223     12222     12225     12224     12222     12225     12225     12228     12229
     12225     12228     12230     12225     12228     12231     12226     12225     12227
     12226     12225     12228     12227     12225     12228     12228     12231     12232
     12228     12231     12233     12228     12231     12234     12229     12228     12230
     12229     12228     12231     12230     12228     12231     12231     12234     12235
     12231     12234     12236     12231     12234     12237     12232     12231     12233
     12232     12231     12234     12233     12231     12234     12234     12237     12238
     12234     12237     12239     12234     12237     12240     12235     12234     12236
     12235     12234     12237     12236     12234     12237     12237     12240     12241
     12237     12240     12242     12238     12237     12239     12238     12237     12240
     12239     12237     12240     12240     12242     12243     12240     12242     12244
     12241     12240     12242     12242     12244     12245     12242     12244     12246
     12242     12244     12247     12243     12242     12244     12244     12247     12248
     12244     12247     12249     12244     12247     12250     12245     12244     12246
     12245     12244     12247     12246     12244     12247     12247     12250     12251
     12247     12250     12252     12247     12250     12253     12248     12247     12249
     12248     12247     12250     12249     12247     12250     12250     12253     12254
     12250     12253     12255     12250     12253     12256     12251     12250     12252
     12251     12250     12253     12252     12250     12253     12253     12256     12257
     12253     12256     12258     12253     12256     12259     12254     12253     12255
     12254     12253     12256     12255     12253     12256     12256     12259     12260
     12256     12259     12261     12256     12259     12262     12257     12256     12258
     12257     12256     12259     12258     12256     12259     12259     12262     12263
     12259     12262     12264     12259     12262     12265     12260     12259     12261
     12260     12259     12262     12261     12259     12262     12262     12265     12266
     12262     12265     12267     12262     12265     12268     12263     12262     12264
     12263     12262     12265     12264     12262     12265     12266     12265     12267
     12266     12265     12268     12267     12265     12268     12269     12272     12273
     12269     12272     12274     12269     12272     12275     12270     12269     12271
     12270     12269     12272     12271     12269     12272     12272     12275     12276
     12272     12275     12277     12272     12275     12278     12273     12272     12274
     12273     12272     12275     12274     12272     12275     12275     12278     12279
     12275     12278     12280     12275     12278     12281     12276     12275     12277
     12276     12275     12278     12277     12275     12278     12278     12281     12282
     12278     12281     12283     12278     12281     12284     12279     12278     12280
     12279     12278     12281     12280     12278     12281     12281     12284     12285
     12281     12284     12286     12281     12284     12287     12282     12281     12283
     12282     12281     12284     12283     12281     12284     12284     12287     12288
     12284     12287     12289     12284     12287     12290     12285     12284     12286
     12285     12284     12287     12286     12284     12287     12287     12290     12291
     12287     12290     12292     12287     12290     12293     12288     12287     12289
     12288     12287     12290     12289     12287     12290     12290     12293     12294
     12290     12293     12295     12290     12293     12296     12291     12290     12292
     12291     12290     12293     12292     12290     12293     12293     12296     12297
     12293     12296     12298     12293     12296     12299     12294     12293     12295
     12294     12293     12296     12295     12293     12296     12296     12299     12300
     12296     12299     12301     12296     12299     12302     12297     12296     12298
     12297     12296     12299     12298     12296     12299     12299     12302     12303
     12299     12302     12304     12299     12302     12305     12300     12299     12301
     12300     12299     12302     12301     12299     12302     12302     12305     12306
     12302     12305     12307     12302     12305     12308     12303     12302     12304
     12303     12302     12305     12304     12302     12305     12305     12308     12309
     12305     12308     12310     12305     12308     12311     12306     12305     12307
     12306     12305     12308     12307     12305     12308     12309     12308     12310
     12309     12308     12311     12310     12308     12311     12312     12313     12314
     12312     12313     12315     12312     12313     12328     12312     12316     12317
     12312     12316     12318     12312     12316     12319     12312     12320     12321
     12312     12320     12322     12312     12320     12323     12312     12324     12325
     12312     12324     12326     12312     12324     12327     12313     12312     12316
     12313     12312     12320     12313     12312     12324     12313     12328     12329
     12313     12328     12330     12313     12328     12334     12314     12313     12315
     12314     12313     12328     12315     12313     12328     12316     12312     12320
     12316     12312     12324     12317     12316     12318     12317     12316     12319
     12318     12316     12319     12320     12312     12324     12321     12320     12322
     12321     12320     12323     12322     12320     12323     12325     12324     12326
     12325     12324     12327     12326     12324     12327     12328     12334     12331
     12329     12328     12330     12329     12328     12334     12330     12328     12334
     12331     12335     12336     12332     12331     12333     12332     12331     12334
     12332     12331     12335     12333     12331     12334     12333     12331     12335
     12334     12331     12335     12335     12336     12337     12335     12336     12338
     12335     12336     12339     12336     12339     12340     12336     12339     12341
     12336     12339     12347     12337     12336     12338     12337     12336     12339
     12338     12336     12339     12339     12341     12342     12339     12347     12348
     12339     12347     12349     12339     12347     12350     12340     12339     12341
     12340     12339     12347     12341     12339     12347     12341     12342     12343
     12341     12342     12344     12342     12344     12345     12342     12344     12346
     12342     12344     12356     12343     12342     12344     12344     12356     12357
     12344     12356     12358     12344     12356     12359     12345     12344     12346
     12345     12344     12356     12346     12344     12356     12347     12350     12351
     12348     12347     12349     12348     12347     12350     12349     12347     12350
     12350     12351     12352     12350     12351     12353     12351     12353     12354
     12351     12353     12355     12351     12353     12403     12352     12351     12353
     12353     12403     12404     12353     12403     12405     12353     12403     12406
     12354     12353     12355     12354     12353     12403     12355     12353     12403
     12356     12359     12360     12356     12359     12361     12356     12359     12362
     12357     12356     12358     12357     12356     12359     12358     12356     12359
     12359     12362     12363     12359     12362     12364     12360     12359     12361
     12360     12359     12362     12361     12359     12362     12362     12364     12365
     12362     12364     12366     12363     12362     12364     12364     12366     12367
     12364     12366     12368     12364     12366     12369     12365     12364     12366
     12366     12369     12370     12366     12369     12371     12367     12366     12368
     12367     12366     12369     12368     12366     12369     12369     12371     12372
     12369     12371     12373     12370     12369     12371     12371     12373     12374
     12371     12373     12375     12371     12373     12376     12372     12371     12373
     12373     12376     12377     12373     12376     12378     12374     12373     12375
     12374     12373     12376     12375     12373     12376     12376     12378     12379
     12376     12378     12380     12377     12376     12378     12378     12380     12381
     12378     12380     12382     12378     12380     12383     12379     12378     12380
     12380     12383     12384     12380     12383     12385     12381     12380     12382
     12381     12380     12383     12382     12380     12383     12383     12385     12386
     12383     12385     12387     12384     12383     12385     12385     12387     12388
     12385     12387     12389     12385     12387     12390     12386     12385     12387
     12387     12390     12391     12387     12390     12392     12387     12390     12393
     12388     12387     12389     12388     12387     12390     12389     12387     12390
     12390     12393     12394     12390     12393     12395     12390     12393     12396
     12391     12390     12392     12391     12390     12393     12392     12390     12393
     12393     12396     12397     12393     12396     12398     12393     12396     12399
     12394     12393     12395     12394     12393     12396     12395     12393     12396
     12396     12399     12400     12396     12399     12401     12396     12399     12402
     12397     12396     12398     12397     12396     12399     12398     12396     12399
     12400     12399     12401     12400     12399     12402     12401     12399     12402
     12403     12406     12407     12403     12406     12408     12403     12406     12409
     12404     12403     12405     12404     12403     12406     12405     12403     12406
     12406     12409     12410     12406     12409     12411     12406     12409     12412
     12407     12406     12408     12407     12406     12409     12408     12406     12409
     12409     12412     12413     12409     12412     12414     12409     12412     12415
     12410     12409     12411     12410     12409     12412     12411     12409     12412
     12412     12415     12416     12412     12415     12417     12412     12415     12418
     12413     12412     12414     12413     12412     12415     12414     12412     12415
     12415     12418     12419     12415     12418     12420     12415     12418     12421
     12416     12415     12417     12416     12415     12418     12417     12415     12418
     12418     12421     12422     12418     12421     12423     12418     12421     12424
     12419     12418     12420     12419     12418     12421     12420     12418     12421
     12421     12424     12425     12421     12424     12426     12421     12424     12427
     12422     12421     12423     12422     12421     12424     12423     12421     12424
     12424     12427     12428     12424     12427     12429     12424     12427     12430
     12425     12424     12426     12425     12424     12427     12426     12424     12427
     12427     12430     12431     12427     12430     12432     12427     12430     12433
     12428     12427     12429     12428     12427     12430     12429     12427     12430
     12430     12433     12434     12430     12433     12435     12430     12433     12436
     12431     12430     12432     12431     12430     12433     12432     12430     12433
     12433     12436     12437     12433     12436     12438     12433     12436     12439
     12434     12433     12435     12434     12433     12436     12435     12433     12436
     12436     12439     12440     12436     12439     12441     12436     12439     12442
     12437     12436     12438     12437     12436     12439     12438     12436     12439
     12439     12442     12443     12439     12442     12444     12439     12442     12445
     12440     12439     12441     12440     12439     12442     12441     12439     12442
     12442     12445     12446     12442     12445     12447     12442     12445     12448
     12443     12442     12444     12443     12442     12445     12444     12442     12445
     12445     12448     12449     12445     12448     12450     12445     12448     12451
     12446     12445     12447     12446     12445     12448     12447     12445     12448
     12449     12448     12450     12449     12448     12451     12450     12448     12451
     12452     12453     12454     12452     12453     12455     12452     12453     12456
     12452     12457     12458     12452     12457     12459     12452     12457     12460
     12452     12461     12462     12452     12461     12463     12452     12461     12464
     12452     12465     12466     12452     12465     12467     12452     12465     12468
     12453     12452     12457     12453     12452     12461     12453     12452     12465
     12454     12453     12455     12454     12453     12456     12455     12453     12456
     12457     12452     12461     12457     12452     12465     12458     12457     12459
     12458     12457     12460     12459     12457     12460     12461     12452     12465
     12462     12461     12463     12462     12461     12464     12463     12461     12464
     12465     12468     12469     12465     12468     12470     12465     12468     12475
     12466     12465     12467     12466     12465     12468     12467     12465     12468
     12468     12475     12471     12469     12468     12470     12469     12468     12475
     12470     12468     12475     12471     12474     12476     12472     12471     12473
     12472     12471     12474     12472     12471     12475     12473     12471     12474
     12473     12471     12475     12474     12471     12475     12474     12476     12477
     12474     12476     12478     12474     12476     12481     12476     12481     12479
     12476     12481     12482     12476     12481     12483     12477     12476     12478
     12477     12476     12481     12478     12476     12481     12479     12481     12482
     12479     12481     12483     12479     12531     12532     12479     12531     12533
     12480     12479     12481     12480     12479     12531     12481     12479     12531
     12481     12483     12484     12481     12483     12485     12481     12483     12487
     12482     12481     12483     12483     12485     12486     12483     12487     12488
     12483     12487     12489     12484     12483     12485     12484     12483     12487
     12485     12483     12487     12487     12489     12490     12487     12489     12491
     12488     12487     12489     12489     12491     12492     12489     12491     12493
     12489     12491     12494     12490     12489     12491     12491     12494     12495
     12491     12494     12496     12491     12494     12497     12492     12491     12493
     12492     12491     12494     12493     12491     12494     12494     12497     12498
     12494     12497     12499     12494     12497     12500     12495     12494     12496
     12495     12494     12497     12496     12494     12497     12497     12500     12501
     12497     12500     12502     12497     12500     12503     12498     12497     12499
     12498     12497     12500     12499     12497     12500     12500     12503     12504
     12500     12503     12505     12500     12503     12506     12501     12500     12502
     12501     12500     12503     12502     12500     12503     12503     12506     12507
     12503     12506     12508     12503     12506     12509     12504     12503     12505
     12504     12503     12506     12505     12503     12506     12506     12509     12510
     12506     12509     12511     12506     12509     12512     12507     12506     12508
     12507     12506     12509     12508     12506     12509     12509     12512     12513
     12509     12512     12514     12509     12512     12515     12510     12509     12511
     12510     12509     12512     12511     12509     12512     12512     12515     12516
     12512     12515     12517     12512     12515     12518     12513     12512     12514
     12513     12512     12515     12514     12512     12515     12515     12518     12519
     12515     12518     12520     12515     12518     12521     12516     12515     12517
     12516     12515     12518     12517     12515     12518     12518     12521     12522
     12518     12521     12523     12518     12521     12524     12519     12518     12520
     12519     12518     12521     12520     12518     12521     12521     12524     12525
     12521     12524     12526     12521     12524     12527     12522     12521     12523
     12522     12521     12524     12523     12521     12524     12524     12527     12528
     12524     12527     12529     12524     12527     12530     12525     12524     12526
     12525     12524     12527     12526     12524     12527     12528     12527     12529
     12528     12527     12530     12529     12527     12530     12531     12533     12534
     12531     12533     12535     12531     12533     12536     12532     12531     12533
     12533     12536     12537     12533     12536     12538     12533     12536     12539
     12534     12533     12535     12534     12533     12536     12535     12533     12536
     12536     12539     12540     12536     12539     12541     12536     12539     12542
     12537     12536     12538     12537     12536     12539     12538     12536     12539
     12539     12542     12543     12539     12542     12544     12539     12542     12545
     12540     12539     12541     12540     12539     12542     12541     12539     12542
     12542     12545     12546     12542     12545     12547     12542     12545     12548
     12543     12542     12544     12543     12542     12545     12544     12542     12545
     12545     12548     12549     12545     12548     12550     12545     12548     12551
     12546     12545     12547     12546     12545     12548     12547     12545     12548
     12548     12551     12552     12548     12551     12553     12548     12551     12554
     12549     12548     12550     12549     12548     12551     12550     12548     12551
     12551     12554     12555     12551     12554     12556     12552     12551     12553
     12552     12551     12554     12553     12551     12554     12554     12556     12557
     12554     12556     12558     12555     12554     12556     12556     12558     12559
     12556     12558     12560     12556     12558     12561     12557     12556     12558
     12558     12561     12562     12558     12561     12563     12558     12561     12564
     12559     12558     12560     12559     12558     12561     12560     12558     12561
     12561     12564     12565     12561     12564     12566     12561     12564     12567
     12562     12561     12563     12562     12561     12564     12563     12561     12564
     12564     12567     12568     12564     12567     12569     12564     12567     12570
     12565     12564     12566     12565     12564     12567     12566     12564     12567
     12567     12570     12571     12567     12570     12572     12567     12570     12573
     12568     12567     12569     12568     12567     12570     12569     12567     12570
     12570     12573     12574     12570     12573     12575     12570     12573     12576
     12571     12570     12572     12571     12570     12573     12572     12570     12573
     12573     12576     12577     12573     12576     12578     12573     12576     12579
     12574     12573     12575     12574     12573     12576     12575     12573     12576
     12576     12579     12580     12576     12579     12581     12576     12579     12582
     12577     12576     12578     12577     12576     12579     12578     12576     12579
     12580     12579     12581     12580     12579     12582     12581     12579     12582
     12583     12585     12586     12583     12587     12588     12583     12587     12589
     12583     12587     12591     12583     12603     12599     12583     12603     12604
     12583     12603     12608     12584     12583     12585     12584     12583     12587
     12584     12583     12603     12585     12583     12587     12585     12583     12603
     12587     12583     12603     12587     12589     12590     12587     12591     12592
     12587     12591     12593     12587     12591     12595     12588     12587     12589
     12588     12587     12591     12589     12587     12591     12591     12593     12594
     12591     12595     12596     12591     12595     12597     12591     12595     12599
     12592     12591     12593     12592     12591     12595     12593     12591     12595
     12595     12597     12598     12595     12599     12600     12595     12599     12601
     12595     12599     12603     12596     12595     12597     12596     12595     12599
     12597     12595     12599     12599     12601     12602     12599     12603     12604
     12599     12603     12608     12600     12599     12601     12600     12599     12603
     12601     12599     12603     12603     12608     12605     12604     12603     12608
     12605     12609     12610     12606     12605     12607     12606     12605     12608
     12606     12605     12609     12607     12605     12608     12607     12605     12609
     12608     12605     12609     12609     12610     12611     12609     12610     12612
     12609     12610     12613     12610     12613     12614     12610     12613     12615
     12610     12613     12621     12611     12610     12612     12611     12610     12613
     12612     12610     12613     12613     12615     12616     12613     12621     12622
     12613     12621     12623     12613     12621     12624     12614     12613     12615
     12614     12613     12621     12615     12613     12621     12615     12616     12617
     12615     12616     12618     12616     12618     12619     12616     12618     12620
     12616     12618     12630     12617     12616     12618     12618     12630     12631
     12618     12630     12632     12618     12630     12633     12619     12618     12620
     12619     12618     12630     12620     12618     12630     12621     12624     12625
     12622     12621     12623     12622     12621     12624     12623     12621     12624
     12624     12625     12626     12624     12625     12627     12625     12627     12628
     12625     12627     12629     12625     12627     12677     12626     12625     12627
     12627     12677     12678     12627     12677     12679     12627     12677     12680
     12628     12627     12629     12628     12627     12677     12629     12627     12677
     12630     12633     12634     12630     12633     12635     12630     12633     12636
     12631     12630     12632     12631     12630     12633     12632     12630     12633
     12633     12636     12637     12633     12636     12638     12634     12633     12635
     12634     12633     12636     12635     12633     12636     12636     12638     12639
     12636     12638     12640     12637     12636     12638     12638     12640     12641
     12638     12640     12642     12638     12640     12643     12639     12638     12640
     12640     12643     12644     12640     12643     12645     12641     12640     12642
     12641     12640     12643     12642     12640     12643     12643     12645     12646
     12643     12645     12647     12644     12643     12645     12645     12647     12648
     12645     12647     12649     12645     12647     12650     12646     12645     12647
     12647     12650     12651     12647     12650     12652     12648     12647     12649
     12648     12647     12650     12649     12647     12650     12650     12652     12653
     12650     12652     12654     12651     12650     12652     12652     12654     12655
     12652     12654     12656     12652     12654     12657     12653     12652     12654
     12654     12657     12658     12654     12657     12659     12655     12654     12656
     12655     12654     12657     12656     12654     12657     12657     12659     12660
     12657     12659     12661     12658     12657     12659     12659     12661     12662
     12659     12661     12663     12659     12661     12664     12660     12659     12661
     12661     12664     12665     12661     12664     12666     12661     12664     12667
     12662     12661     12663     12662     12661     12664     12663     12661     12664
     12664     12667     12668     12664     12667     12669     12664     12667     12670
     12665     12664     12666     12665     12664     12667     12666     12664     12667
     12667     12670     12671     12667     12670     12672     12667     12670     12673
     12668     12667     12669     12668     12667     12670     12669     12667     12670
     12670     12673     12674     12670     12673     12675     12670     12673     12676
     12671     12670     12672     12671     12670     12673     12672     12670     12673
     12674     12673     12675     12674     12673     12676     12675     12673     12676
     12677     12680     12681     12677     12680     12682     12677     12680     12683
     12678     12677     12679     12678     12677     12680     12679     12677     12680
     12680     12683     12684     12680     12683     12685     12680     12683     12686
     12681     12680     12682     12681     12680     12683     12682     12680     12683
     12683     12686     12687     12683     12686     12688     12683     12686     12689
     12684     12683     12685     12684     12683     12686     12685     12683     12686
     12686     12689     12690     12686     12689     12691     12686     12689     12692
     12687     12686     12688     12687     12686     12689     12688     12686     12689
     12689     12692     12693     12689     12692     12694     12689     12692     12695
     12690     12689     12691     12690     12689     12692     12691     12689     12692
     12692     12695     12696     12692     12695     12697     12692     12695     12698
     12693     12692     12694     12693     12692     12695     12694     12692     12695
     12695     12698     12699     12695     12698     12700     12695     12698     12701
     12696     12695     12697     12696     12695     12698     12697     12695     12698
     12698     12701     12702     12698     12701     12703     12698     12701     12704
     12699     12698     12700     12699     12698     12701     12700     12698     12701
     12701     12704     12705     12701     12704     12706     12701     12704     12707
     12702     12701     12703     12702     12701     12704     12703     12701     12704
     12704     12707     12708     12704     12707     12709     12704     12707     12710
     12705     12704     12706     12705     12704     12707     12706     12704     12707
     12707     12710     12711     12707     12710     12712     12707     12710     12713
     12708     12707     12709     12708     12707     12710     12709     12707     12710
     12710     12713     12714     12710     12713     12715     12710     12713     12716
     12711     12710     12712     12711     12710     12713     12712     12710     12713
     12713     12716     12717     12713     12716     12718     12713     12716     12719
     12714     12713     12715     12714     12713     12716     12715     12713     12716
     12716     12719     12720     12716     12719     12721     12716     12719     12722
     12717     12716     12718     12717     12716     12719     12718     12716     12719
     12719     12722     12723     12719     12722     12724     12719     12722     12725
     12720     12719     12721     12720     12719     12722     12721     12719     12722
     12723     12722     12724     12723     12722     12725     12724     12722     12725
     12726     12727     12728     12726     12727     12729     12726     12727     12730
     12726     12731     12732     12726     12731     12733     12726     12731     12734
     12726     12735     12736     12726     12735     12737     12726     12735     12738
     12726     12739     12740     12726     12739     12741     12726     12739     12742
     12727     12726     12731     12727     12726     12735     12727     12726     12739
     12728     12727     12729     12728     12727     12730     12729     12727     12730
     12731     12726     12735     12731     12726     12739     12732     12731     12733
     12732     12731     12734     12733     12731     12734     12735     12726     12739
     12736     12735     12737     12736     12735     12738     12737     12735     12738
     12739     12742     12743     12739     12742     12744     12739     12742     12749
     12740     12739     12741     12740     12739     12742     12741     12739     12742
     12742     12749     12745     12743     12742     12744     12743     12742     12749
     12744     12742     12749     12745     12748     12750     12746     12745     12747
     12746     12745     12748     12746     12745     12749     12747     12745     12748
     12747     12745     12749     12748     12745     12749     12748     12750     12751
     12748     12750     12752     12748     12750     12755     12750     12755     12753
     12750     12755     12756     12750     12755     12757     12751     12750     12752
     12751     12750     12755     12752     12750     12755     12753     12755     12756
     12753     12755     12757     12753     12805     12806     12753     12805     12807
     12754     12753     12755     12754     12753     12805     12755     12753     12805
     12755     12757     12758     12755     12757     12759     12755     12757     12761
     12756     12755     12757     12757     12759     12760     12757     12761     12762
     12757     12761     12763     12758     12757     12759     12758     12757     12761
     12759     12757     12761     12761     12763     12764     12761     12763     12765
     12762     12761     12763     12763     12765     12766     12763     12765     12767
     12763     12765     12768     12764     12763     12765     12765     12768     12769
     12765     12768     12770     12765     12768     12771     12766     12765     12767
     12766     12765     12768     12767     12765     12768     12768     12771     12772
     12768     12771     12773     12768     12771     12774     12769     12768     12770
     12769     12768     12771     12770     12768     12771     12771     12774     12775
     12771     12774     12776     12771     12774     12777     12772     12771     12773
     12772     12771     12774     12773     12771     12774     12774     12777     12778
     12774     12777     12779     12774     12777     12780     12775     12774     12776
     12775     12774     12777     12776     12774     12777     12777     12780     12781
     12777     12780     12782     12777     12780     12783     12778     12777     12779
     12778     12777     12780     12779     12777     12780     12780     12783     12784
     12780     12783     12785     12780     12783     12786     12781     12780     12782
     12781     12780     12783     12782     12780     12783     12783     12786     12787
     12783     12786     12788     12783     12786     12789     12784     12783     12785
     12784     12783     12786     12785     12783     12786     12786     12789     12790
     12786     12789     12791     12786     12789     12792     12787     12786     12788
     12787     12786     12789     12788     12786     12789     12789     12792     12793
     12789     12792     12794     12789     12792     12795     12790     12789     12791
     12790     12789     12792     12791     12789     12792     12792     12795     12796
     12792     12795     12797     12792     12795     12798     12793     12792     12794
     12793     12792     12795     12794     12792     12795     12795     12798     12799
     12795     12798     12800     12795     12798     12801     12796     12795     12797
     12796     12795     12798     12797     12795     12798     12798     12801     12802
     12798     12801     12803     12798     12801     12804     12799     12798     12800
     12799     12798     12801     12800     12798     12801     12802     12801     12803
     12802     12801     12804     12803     12801     12804     12805     12807     12808
     12805     12807     12809     12805     12807     12810     12806     12805     12807
     12807     12810     12811     12807     12810     12812     12807     12810     12813
     12808     12807     12809     12808     12807     12810     12809     12807     12810
     12810     12813     12814     12810     12813     12815     12810     12813     12816
     12811     12810     12812     12811     12810     12813     12812     12810     12813
     12813     12816     12817     12813     12816     12818     12813     12816     12819
     12814     12813     12815     12814     12813     12816     12815     12813     12816
     12816     12819     12820     12816     12819     12821     12816     12819     12822
     12817     12816     12818     12817     12816     12819     12818     12816     12819
     12819     12822     12823     12819     12822     12824     12819     12822     12825
     12820     12819     12821     12820     12819     12822     12821     12819     12822
     12822     12825     12826     12822     12825     12827     12822     12825     12828
     12823     12822     12824     12823     12822     12825     12824     12822     12825
     12825     12828     12829     12825     12828     12830     12826     12825     12827
     12826     12825     12828     12827     12825     12828     12828     12830     12831
     12828     12830     12832     12829     12828     12830     12830     12832     12833
     12830     12832     12834     12830     12832     12835     12831     12830     12832
     12832     12835     12836     12832     12835     12837     12832     12835     12838
     12833     12832     12834     12833     12832     12835     12834     12832     12835
     12835     12838     12839     12835     12838     12840     12835     12838     12841
     12836     12835     12837     12836     12835     12838     12837     12835     12838
     12838     12841     12842     12838     12841     12843     12838     12841     12844
     12839     12838     12840     12839     12838     12841     12840     12838     12841
     12841     12844     12845     12841     12844     12846     12841     12844     12847
     12842     12841     12843     12842     12841     12844     12843     12841     12844
     12844     12847     12848     12844     12847     12849     12844     12847     12850
     12845     12844     12846     12845     12844     12847     12846     12844     12847
     12847     12850     12851     12847     12850     12852     12847     12850     12853
     12848     12847     12849     12848     12847     12850     12849     12847     12850
     12850     12853     12854     12850     12853     12855     12850     12853     12856
     12851     12850     12852     12851     12850     12853     12852     12850     12853
     12854     12853     12855     12854     12853     12856     12855     12853     12856
     12857     12858     12859     12857     12858     12860     12857     12858     12873
     12857     12861     12862     12857     12861     12863     12857     12861     12864
     12857     12865     12866     12857     12865     12867     12857     12865     12868
     12857     12869     12870     12857     12869     12871     12857     12869     12872
     12858     12857     12861     12858     12857     12865     12858     12857     12869
     12858     12873     12874     12858     12873     12875     12858     12873     12879
     12859     12858     12860     12859     12858     12873     12860     12858     12873
     12861     12857     12865     12861     12857     12869     12862     12861     12863
     12862     12861     12864     12863     12861     12864     12865     12857     12869
     12866     12865     12867     12866     12865     12868     12867     12865     12868
     12870     12869     12871     12870     12869     12872     12871     12869     12872
     12873     12879     12876     12874     12873     12875     12874     12873     12879
     12875     12873     12879     12876     12880     12881     12877     12876     12878
     12877     12876     12879     12877     12876     12880     12878     12876     12879
     12878     12876     12880     12879     12876     12880     12880     12881     12882
     12880     12881     12883     12880     12881     12884     12881     12884     12885
     12881     12884     12886     12881     12884     12892     12882     12881     12883
     12882     12881     12884     12883     12881     12884     12884     12886     12887
     12884     12892     12893     12884     12892     12894     12884     12892     12895
     12885     12884     12886     12885     12884     12892     12886     12884     12892
     12886     12887     12888     12886     12887     12889     12887     12889     12890
     12887     12889     12891     12887     12889     12901     12888     12887     12889
     12889     12901     12902     12889     12901     12903     12889     12901     12904
     12890     12889     12891     12890     12889     12901     12891     12889     12901
     12892     12895     12896     12893     12892     12894     12893     12892     12895
     12894     12892     12895     12895     12896     12897     12895     12896     12898
     12896     12898     12899     12896     12898     12900     12896     12898     12948
     12897     12896     12898     12898     12948     12949     12898     12948     12950
     12898     12948     12951     12899     12898     12900     12899     12898     12948
     12900     12898     12948     12901     12904     12905     12901     12904     12906
     12901     12904     12907     12902     12901     12903     12902     12901     12904
     12903     12901     12904     12904     12907     12908     12904     12907     12909
     12904     12907     12910     12905     12904     12906     12905     12904     12907
     12906     12904     12907     12907     12910     12911     12907     12910     12912
     12907     12910     12913     12908     12907     12909     12908     12907     12910
     12909     12907     12910     12910     12913     12914     12910     12913     12915
     12910     12913     12916     12911     12910     12912     12911     12910     12913
     12912     12910     12913     12913     12916     12917     12913     12916     12918
     12913     12916     12919     12914     12913     12915     12914     12913     12916
     12915     12913     12916     12916     12919     12920     12916     12919     12921
     12917     12916     12918     12917     12916     12919     12918     12916     12919
     12919     12921     12922     12919     12921     12923     12920     12919     12921
     12921     12923     12924     12921     12923     12925     12921     12923     12926
     12922     12921     12923     12923     12926     12927     12923     12926     12928
     12923     12926     12929     12924     12923     12925     12924     12923     12926
     12925     12923     12926     12926     12929     12930     12926     12929     12931
     12926     12929     12932     12927     12926     12928     12927     12926     12929
     12928     12926     12929     12929     12932     12933     12929     12932     12934
     12929     12932     12935     12930     12929     12931     12930     12929     12932
     12931     12929     12932     12932     12935     12936     12932     12935     12937
     12932     12935     12938     12933     12932     12934     12933     12932     12935
     12934     12932     12935     12935     12938     12939     12935     12938     12940
     12935     12938     12941     12936     12935     12937     12936     12935     12938
     12937     12935     12938     12938     12941     12942     12938     12941     12943
     12938     12941     12944     12939     12938     12940     12939     12938     12941
     12940     12938     12941     12941     12944     12945     12941     12944     12946
     12941     12944     12947     12942     12941     12943     12942     12941     12944
     12943     12941     12944     12945     12944     12946     12945     12944     12947
     12946     12944     12947     12948     12951     12952     12948     12951     12953
     12948     12951     12954     12949     12948     12950     12949     12948     12951
     12950     12948     12951     12951     12954     12955     12951     12954     12956
     12951     12954     12957     12952     12951     12953     12952     12951     12954
     12953     12951     12954     12954     12957     12958     12954     12957     12959
     12954     12957     12960     12955     12954     12956     12955     12954     12957
     12956     12954     12957     12957     12960     12961     12957     12960     12962
     12957     12960     12963     12958     12957     12959     12958     12957     12960
     12959     12957     12960     12960     12963     12964     12960     12963     12965
     12960     12963     12966     12961     12960     12962     12961     12960     12963
     12962     12960     12963     12963     12966     12967     12963     12966     12968
     12963     12966     12969     12964     12963     12965     12964     12963     12966
     12965     12963     12966     12966     12969     12970     12966     12969     12971
     12966     12969     12972     12967     12966     12968     12967     12966     12969
     12968     12966     12969     12969     12972     12973     12969     12972     12974
     12969     12972     12975     12970     12969     12971     12970     12969     12972
     12971     12969     12972     12972     12975     12976     12972     12975     12977
     12972     12975     12978     12973     12972     12974     12973     12972     12975
     12974     12972     12975     12975     12978     12979     12975     12978     12980
     12975     12978     12981     12976     12975     12977     12976     12975     12978
     12977     12975     12978     12978     12981     12982     12978     12981     12983
     12978     12981     12984     12979     12978     12980     12979     12978     12981
     12980     12978     12981     12981     12984     12985     12981     12984     12986
     12981     12984     12987     12982     12981     12983     12982     12981     12984
     12983     12981     12984     12984     12987     12988     12984     12987     12989
     12984     12987     12990     12985     12984     12986     12985     12984     12987
     12986     12984     12987     12988     12987     12989     12988     12987     12990
     12989     12987     12990     12991     12992     12993     12991     12992     12994
     12991     12992     13007     12991     12995     12996     12991     12995     12997
     12991     12995     12998     12991     12999     13000     12991     12999     13001
     12991     12999     13002     12991     13003     13004     12991     13003     13005
     12991     13003     13006     12992     12991     12995     12992     12991     12999
     12992     12991     13003     12992     13007     13008     12992     13007     13009
     12992     13007     13013     12993     12992     12994     12993     12992     13007
     12994     12992     13007     12995     12991     12999     12995     12991     13003
     12996     12995     12997     12996     12995     12998     12997     12995     12998
     12999     12991     13003     13000     12999     13001     13000     12999     13002
     13001     12999     13002     13004     13003     13005     13004     13003     13006
     13005     13003     13006     13007     13013     13010     13008     13007     13009
     13008     13007     13013     13009     13007     13013     13010     13014     13015
     13011     13010     13012     13011     13010     13013     13011     13010     13014
     13012     13010     13013     13012     13010     13014     13013     13010     13014
     13014     13015     13016     13014     13015     13017     13014     13015     13018
     13015     13018     13019     13015     13018     13020     13015     13018     13026
     13016     13015     13017     13016     13015     13018     13017     13015     13018
     13018     13020     13021     13018     13026     13027     13018     13026     13028
     13018     13026     13029     13019     13018     13020     13019     13018     13026
     13020     13018     13026     13020     13021     13022     13020     13021     13023
     13021     13023     13024     13021     13023     13025     13021     13023     13035
     13022     13021     13023     13023     13035     13036     13023     13035     13037
     13023     13035     13038     13024     13023     13025     13024     13023     13035
     13025     13023     13035     13026     13029     13030     13027     13026     13028
     13027     13026     13029     13028     13026     13029     13029     13030     13031
     13029     13030     13032     13030     13032     13033     13030     13032     13034
     13030     13032     13082     13031     13030     13032     13032     13082     13083
     13032     13082     13084     13032     13082     13085     13033     13032     13034
     13033     13032     13082     13034     13032     13082     13035     13038     13039
     13035     13038     13040     13035     13038     13041     13036     13035     13037
     13036     13035     13038     13037     13035     13038     13038     13041     13042
     13038     13041     13043     13039     13038     13040     13039     13038     13041
     13040     13038     13041     13041     13043     13044     13041     13043     13045
     13042     13041     13043     13043     13045     13046     13043     13045     13047
     13043     13045     13048     13044     13043     13045     13045     13048     13049
     13045     13048     13050     13046     13045     13047     13046     13045     13048
     13047     13045     13048     13048     13050     13051     13048     13050     13052
     13049     13048     13050     13050     13052     13053     13050     13052     13054
     13050     13052     13055     13051     13050     13052     13052     13055     13056
     13052     13055     13057     13053     13052     13054     13053     13052     13055
     13054     13052     13055     13055     13057     13058     13055     13057     13059
     13056     13055     13057     13057     13059     13060     13057     13059     13061
     13057     13059     13062     13058     13057     13059     13059     13062     13063
     13059     13062     13064     13060     13059     13061     13060     13059     13062
     13061     13059     13062     13062     13064     13065     13062     13064     13066
     13063     13062     13064     13064     13066     13067     13064     13066     13068
     13064     13066     13069     13065     13064     13066     13066     13069     13070
     13066     13069     13071     13066     13069     13072     13067     13066     13068
     13067     13066     13069     13068     13066     13069     13069     13072     13073
     13069     13072     13074     13069     13072     13075     13070     13069     13071
     13070     13069     13072     13071     13069     13072     13072     13075     13076
     13072     13075     13077     13072     13075     13078     13073     13072     13074
     13073     13072     13075     13074     13072     13075     13075     13078     13079
     13075     13078     13080     13075     13078     13081     13076     13075     13077
     13076     13075     13078     13077     13075     13078     13079     13078     13080
     13079     13078     13081     13080     13078     13081     13082     13085     13086
     13082     13085     13087     13082     13085     13088     13083     13082     13084
     13083     13082     13085     13084     13082     13085     13085     13088     13089
     13085     13088     13090     13085     13088     13091     13086     13085     13087
     13086     13085     13088     13087     13085     13088     13088     13091     13092
     13088     13091     13093     13088     13091     13094     13089     13088     13090
     13089     13088     13091     13090     13088     13091     13091     13094     13095
     13091     13094     13096     13091     13094     13097     13092     13091     13093
     13092     13091     13094     13093     13091     13094     13094     13097     13098
     13094     13097     13099     13094     13097     13100     13095     13094     13096
     13095     13094     13097     13096     13094     13097     13097     13100     13101
     13097     13100     13102     13097     13100     13103     13098     13097     13099
     13098     13097     13100     13099     13097     13100     13100     13103     13104
     13100     13103     13105     13100     13103     13106     13101     13100     13102
     13101     13100     13103     13102     13100     13103     13103     13106     13107
     13103     13106     13108     13103     13106     13109     13104     13103     13105
     13104     13103     13106     13105     13103     13106     13106     13109     13110
     13106     13109     13111     13106     13109     13112     13107     13106     13108
     13107     13106     13109     13108     13106     13109     13109     13112     13113
     13109     13112     13114     13109     13112     13115     13110     13109     13111
     13110     13109     13112     13111     13109     13112     13112     13115     13116
     13112     13115     13117     13112     13115     13118     13113     13112     13114
     13113     13112     13115     13114     13112     13115     13115     13118     13119
     13115     13118     13120     13115     13118     13121     13116     13115     13117
     13116     13115     13118     13117     13115     13118     13118     13121     13122
     13118     13121     13123     13118     13121     13124     13119     13118     13120
     13119     13118     13121     13120     13118     13121     13121     13124     13125
     13121     13124     13126     13121     13124     13127     13122     13121     13123
     13122     13121     13124     13123     13121     13124     13124     13127     13128
     13124     13127     13129     13124     13127     13130     13125     13124     13126
     13125     13124     13127     13126     13124     13127     13128     13127     13129
     13128     13127     13130     13129     13127     13130     13131     13133     13134
     13131     13135     13136     13131     13135     13137     13131     13135     13138
     13131     13177     13174     13131     13177     13178     13131     13177     13179
     13132     13131     13133     13132     13131     13135     13132     13131     13177
     13133     13131     13135     13133     13131     13177     13135     13131     13177
     13135     13138     13139     13135     13138     13169     13136     13135     13137
     13136     13135     13138     13137     13135     13138     13138     13139     13140
     13138     13139     13141     13138     13169     13167     13138     13169     13170
     13138     13169     13174     13139     13138     13169     13139     13141     13142
     13139     13141     13143     13139     13141     13144     13140     13139     13141
     13141     13144     13145     13141     13144     13146     13141     13144     13167
     13142     13141     13143     13142     13141     13144     13143     13141     13144
     13144     13146     13147     13144     13146     13148     13144     13146     13156
     13144     13167     13164     13144     13167     13168     13144     13167     13169
     13145     13144     13146     13145     13144     13167     13146     13144     13167
     13146     13148     13149     13146     13148     13150     13146     13148     13151
     13146     13156     13154     13146     13156     13157     13146     13156     13161
     13147     13146     13148     13147     13146     13156     13148     13146     13156
     13148     13151     13152     13148     13151     13153     13148     13151     13154
     13149     13148     13150     13149     13148     13151     13150     13148     13151
     13151     13154     13155     13151     13154     13156     13151     13154     13180
     13152     13151     13153     13152     13151     13154     13153     13151     13154
     13154     13156     13157     13154     13156     13161     13154     13180     13181
     13154     13180     13182     13154     13180     13186     13155     13154     13156
     13155     13154     13180     13156     13154     13180     13156     13157     13158
     13156     13157     13159     13156     13157     13160     13156     13161     13162
     13156     13161     13163     13156     13161     13164     13157     13156     13161
     13158     13157     13159     13158     13157     13160     13159     13157     13160
     13161     13164     13165     13161     13164     13166     13161     13164     13167
     13162     13161     13163     13162     13161     13164     13163     13161     13164
     13164     13167     13168     13164     13167     13169     13165     13164     13166
     13165     13164     13167     13166     13164     13167     13167     13169     13170
     13167     13169     13174     13168     13167     13169     13169     13170     13171
     13169     13170     13172     13169     13170     13173     13169     13174     13175
     13169     13174     13176     13169     13174     13177     13170     13169     13174
     13171     13170     13172     13171     13170     13173     13172     13170     13173
     13174     13177     13178     13174     13177     13179     13175     13174     13176
     13175     13174     13177     13176     13174     13177     13178     13177     13179
     13180     13182     13183     13180     13182     13184     13180     13182     13185
     13180     13186     13187     13180     13186     13188     13180     13186     13189
     13181     13180     13182     13181     13180     13186     13182     13180     13186
     13183     13182     13184     13183     13182     13185     13184     13182     13185
     13186     13189     13190     13186     13189     13191     13186     13189     13192
     13187     13186     13188     13187     13186     13189     13188     13186     13189
     13189     13192     13193     13189     13192     13194     13189     13192     13195
     13190     13189     13191     13190     13189     13192     13191     13189     13192
     13192     13195     13196     13192     13195     13197     13192     13195     13201
     13193     13192     13194     13193     13192     13195     13194     13192     13195
     13195     13197     13198     13195     13197     13199     13195     13197     13200
     13195     13201     13202     13195     13201     13203     13195     13201     13204
     13196     13195     13197     13196     13195     13201     13197     13195     13201
     13198     13197     13199     13198     13197     13200     13199     13197     13200
     13202     13201     13203     13202     13201     13204     13203     13201     13204
     13205     13207     13208     13205     13209     13210     13205     13209     13211
     13205     13209     13212     13205     13251     13248     13205     13251     13252
     13205     13251     13253     13206     13205     13207     13206     13205     13209
     13206     13205     13251     13207     13205     13209     13207     13205     13251
     13209     13205     13251     13209     13212     13213     13209     13212     13243
     13210     13209     13211     13210     13209     13212     13211     13209     13212
     13212     13213     13214     13212     13213     13215     13212     13243     13241
     13212     13243     13244     13212     13243     13248     13213     13212     13243
     13213     13215     13216     13213     13215     13217     13213     13215     13218
     13214     13213     13215     13215     13218     13219     13215     13218     13220
     13215     13218     13241     13216     13215     13217     13216     13215     13218
     13217     13215     13218     13218     13220     13221     13218     13220     13222
     13218     13220     13230     13218     13241     13238     13218     13241     13242
     13218     13241     13243     13219     13218     13220     13219     13218     13241
     13220     13218     13241     13220     13222     13223     13220     13222     13224
     13220     13222     13225     13220     13230     13228     13220     13230     13231
     13220     13230     13235     13221     13220     13222     13221     13220     13230
     13222     13220     13230     13222     13225     13226     13222     13225     13227
     13222     13225     13228     13223     13222     13224     13223     13222     13225
     13224     13222     13225     13225     13228     13229     13225     13228     13230
     13225     13228     13254     13226     13225     13227     13226     13225     13228
     13227     13225     13228     13228     13230     13231     13228     13230     13235
     13228     13254     13255     13228     13254     13256     13228     13254     13260
     13229     13228     13230     13229     13228     13254     13230     13228     13254
     13230     13231     13232     13230     13231     13233     13230     13231     13234
     13230     13235     13236     13230     13235     13237     13230     13235     13238
     13231     13230     13235     13232     13231     13233     13232     13231     13234
     13233     13231     13234     13235     13238     13239     13235     13238     13240
     13235     13238     13241     13236     13235     13237     13236     13235     13238
     13237     13235     13238     13238     13241     13242     13238     13241     13243
     13239     13238     13240     13239     13238     13241     13240     13238     13241
     13241     13243     13244     13241     13243     13248     13242     13241     13243
     13243     13244     13245     13243     13244     13246     13243     13244     13247
     13243     13248     13249     13243     13248     13250     13243     13248     13251
     13244     13243     13248     13245     13244     13246     13245     13244     13247
     13246     13244     13247     13248     13251     13252     13248     13251     13253
     13249     13248     13250     13249     13248     13251     13250     13248     13251
     13252     13251     13253     13254     13256     13257     13254     13256     13258
     13254     13256     13259     13254     13260     13261     13254     13260     13262
     13254     13260     13263     13255     13254     13256     13255     13254     13260
     13256     13254     13260     13257     13256     13258     13257     13256     13259
     13258     13256     13259     13260     13263     13264     13260     13263     13265
     13260     13263     13266     13261     13260     13262     13261     13260     13263
     13262     13260     13263     13263     13266     13267     13263     13266     13268
     13263     13266     13269     13264     13263     13265     13264     13263     13266
     13265     13263     13266     13266     13269     13270     13266     13269     13271
     13266     13269     13275     13267     13266     13268     13267     13266     13269
     13268     13266     13269     13269     13271     13272     13269     13271     13273
     13269     13271     13274     13269     13275     13276     13269     13275     13277
     13269     13275     13278     13270     13269     13271     13270     13269     13275
     13271     13269     13275     13272     13271     13273     13272     13271     13274
     13273     13271     13274     13276     13275     13277     13276     13275     13278
     13277     13275     13278     13279     13281     13282     13279     13283     13284
     13279     13283     13285     13279     13283     13286     13279     13325     13322
     13279     13325     13326     13279     13325     13327     13280     13279     13281
     13280     13279     13283     13280     13279     13325     13281     13279     13283
     13281     13279     13325     13283     13279     13325     13283     13286     13287
     13283     13286     13317     13284     13283     13285     13284     13283     13286
     13285     13283     13286     13286     13287     13288     13286     13287     13289
     13286     13317     13315     13286     13317     13318     13286     13317     13322
     13287     13286     13317     13287     13289     13290     13287     13289     13291
     13287     13289     13292     13288     13287     13289     13289     13292     13293
     13289     13292     13294     13289     13292     13315     13290     13289     13291
     13290     13289     13292     13291     13289     13292     13292     13294     13295
     13292     13294     13296     13292     13294     13304     13292     13315     13312
     13292     13315     13316     13292     13315     13317     13293     13292     13294
     13293     13292     13315     13294     13292     13315     13294     13296     13297
     13294     13296     13298     13294     13296     13299     13294     13304     13302
     13294     13304     13305     13294     13304     13309     13295     13294     13296
     13295     13294     13304     13296     13294     13304     13296     13299     13300
     13296     13299     13301     13296     13299     13302     13297     13296     13298
     13297     13296     13299     13298     13296     13299     13299     13302     13303
     13299     13302     13304     13299     13302     13328     13300     13299     13301
     13300     13299     13302     13301     13299     13302     13302     13304     13305
     13302     13304     13309     13302     13328     13329     13302     13328     13330
     13302     13328     13334     13303     13302     13304     13303     13302     13328
     13304     13302     13328     13304     13305     13306     13304     13305     13307
     13304     13305     13308     13304     13309     13310     13304     13309     13311
     13304     13309     13312     13305     13304     13309     13306     13305     13307
     13306     13305     13308     13307     13305     13308     13309     13312     13313
     13309     13312     13314     13309     13312     13315     13310     13309     13311
     13310     13309     13312     13311     13309     13312     13312     13315     13316
     13312     13315     13317     13313     13312     13314     13313     13312     13315
     13314     13312     13315     13315     13317     13318     13315     13317     13322
     13316     13315     13317     13317     13318     13319     13317     13318     13320
     13317     13318     13321     13317     13322     13323     13317     13322     13324
     13317     13322     13325     13318     13317     13322     13319     13318     13320
     13319     13318     13321     13320     13318     13321     13322     13325     13326
     13322     13325     13327     13323     13322     13324     13323     13322     13325
     13324     13322     13325     13326     13325     13327     13328     13330     13331
     13328     13330     13332     13328     13330     13333     13328     13334     13335
     13328     13334     13336     13328     13334     13337     13329     13328     13330
     13329     13328     13334     13330     13328     13334     13331     13330     13332
     13331     13330     13333     13332     13330     13333     13334     13337     13338
     13334     13337     13339     13334     13337     13340     13335     13334     13336
     13335     13334     13337     13336     13334     13337     13337     13340     13341
     13337     13340     13342     13337     13340     13343     13338     13337     13339
     13338     13337     13340     13339     13337     13340     13340     13343     13344
     13340     13343     13345     13340     13343     13349     13341     13340     13342
     13341     13340     13343     13342     13340     13343     13343     13345     13346
     13343     13345     13347     13343     13345     13348     13343     13349     13350
     13343     13349     13351     13343     13349     13352     13344     13343     13345
     13344     13343     13349     13345     13343     13349     13346     13345     13347
     13346     13345     13348     13347     13345     13348     13350     13349     13351
     13350     13349     13352     13351     13349     13352     13353     13354     13355
     13353     13354     13356     13353     13354     13369     13353     13357     13358
     13353     13357     13359     13353     13357     13360     13353     13361     13362
     13353     13361     13363     13353     13361     13364     13353     13365     13366
     13353     13365     13367     13353     13365     13368     13354     13353     13357
     13354     13353     13361     13354     13353     13365     13354     13369     13370
     13354     13369     13371     13354     13369     13375     13355     13354     13356
     13355     13354     13369     13356     13354     13369     13357     13353     13361
     13357     13353     13365     13358     13357     13359     13358     13357     13360
     13359     13357     13360     13361     13353     13365     13362     13361     13363
     13362     13361     13364     13363     13361     13364     13366     13365     13367
     13366     13365     13368     13367     13365     13368     13369     13375     13372
     13370     13369     13371     13370     13369     13375     13371     13369     13375
     13372     13376     13377     13373     13372     13374     13373     13372     13375
     13373     13372     13376     13374     13372     13375     13374     13372     13376
     13375     13372     13376     13376     13377     13378     13376     13377     13379
     13376     13377     13380     13377     13380     13381     13377     13380     13382
     13377     13380     13388     13378     13377     13379     13378     13377     13380
     13379     13377     13380     13380     13382     13383     13380     13388     13389
     13380     13388     13390     13380     13388     13391     13381     13380     13382
     13381     13380     13388     13382     13380     13388     13382     13383     13384
     13382     13383     13385     13383     13385     13386     13383     13385     13387
     13383     13385     13397     13384     13383     13385     13385     13397     13398
     13385     13397     13399     13385     13397     13400     13386     13385     13387
     13386     13385     13397     13387     13385     13397     13388     13391     13392
     13389     13388     13390     13389     13388     13391     13390     13388     13391
     13391     13392     13393     13391     13392     13394     13392     13394     13395
     13392     13394     13396     13392     13394     13444     13393     13392     13394
     13394     13444     13445     13394     13444     13446     13394     13444     13447
     13395     13394     13396     13395     13394     13444     13396     13394     13444
     13397     13400     13401     13397     13400     13402     13397     13400     13403
     13398     13397     13399     13398     13397     13400     13399     13397     13400
     13400     13403     13404     13400     13403     13405     13401     13400     13402
     13401     13400     13403     13402     13400     13403     13403     13405     13406
     13403     13405     13407     13404     13403     13405     13405     13407     13408
     13405     13407     13409     13405     13407     13410     13406     13405     13407
     13407     13410     13411     13407     13410     13412     13408     13407     13409
     13408     13407     13410     13409     13407     13410     13410     13412     13413
     13410     13412     13414     13411     13410     13412     13412     13414     13415
     13412     13414     13416     13412     13414     13417     13413     13412     13414
     13414     13417     13418     13414     13417     13419     13415     13414     13416
     13415     13414     13417     13416     13414     13417     13417     13419     13420
     13417     13419     13421     13418     13417     13419     13419     13421     13422
     13419     13421     13423     13419     13421     13424     13420     13419     13421
     13421     13424     13425     13421     13424     13426     13422     13421     13423
     13422     13421     13424     13423     13421     13424     13424     13426     13427
     13424     13426     13428     13425     13424     13426     13426     13428     13429
     13426     13428     13430     13426     13428     13431     13427     13426     13428
     13428     13431     13432     13428     13431     13433     13428     13431     13434
     13429     13428     13430     13429     13428     13431     13430     13428     13431
     13431     13434     13435     13431     13434     13436     13431     13434     13437
     13432     13431     13433     13432     13431     13434     13433     13431     13434
     13434     13437     13438     13434     13437     13439     13434     13437     13440
     13435     13434     13436     13435     13434     13437     13436     13434     13437
     13437     13440     13441     13437     13440     13442     13437     13440     13443
     13438     13437     13439     13438     13437     13440     13439     13437     13440
     13441     13440     13442     13441     13440     13443     13442     13440     13443
     13444     13447     13448     13444     13447     13449     13444     13447     13450
     13445     13444     13446     13445     13444     13447     13446     13444     13447
     13447     13450     13451     13447     13450     13452     13447     13450     13453
     13448     13447     13449     13448     13447     13450     13449     13447     13450
     13450     13453     13454     13450     13453     13455     13450     13453     13456
     13451     13450     13452     13451     13450     13453     13452     13450     13453
     13453     13456     13457     13453     13456     13458     13453     13456     13459
     13454     13453     13455     13454     13453     13456     13455     13453     13456
     13456     13459     13460     13456     13459     13461     13456     13459     13462
     13457     13456     13458     13457     13456     13459     13458     13456     13459
     13459     13462     13463     13459     13462     13464     13459     13462     13465
     13460     13459     13461     13460     13459     13462     13461     13459     13462
     13462     13465     13466     13462     13465     13467     13462     13465     13468
     13463     13462     13464     13463     13462     13465     13464     13462     13465
     13465     13468     13469     13465     13468     13470     13465     13468     13471
     13466     13465     13467     13466     13465     13468     13467     13465     13468
     13468     13471     13472     13468     13471     13473     13468     13471     13474
     13469     13468     13470     13469     13468     13471     13470     13468     13471
     13471     13474     13475     13471     13474     13476     13471     13474     13477
     13472     13471     13473     13472     13471     13474     13473     13471     13474
     13474     13477     13478     13474     13477     13479     13474     13477     13480
     13475     13474     13476     13475     13474     13477     13476     13474     13477
     13477     13480     13481     13477     13480     13482     13477     13480     13483
     13478     13477     13479     13478     13477     13480     13479     13477     13480
     13480     13483     13484     13480     13483     13485     13480     13483     13486
     13481     13480     13482     13481     13480     13483     13482     13480     13483
     13483     13486     13487     13483     13486     13488     13483     13486     13489
     13484     13483     13485     13484     13483     13486     13485     13483     13486
     13486     13489     13490     13486     13489     13491     13486     13489     13492
     13487     13486     13488     13487     13486     13489     13488     13486     13489
     13490     13489     13491     13490     13489     13492     13491     13489     13492
     13493     13495     13496     13493     13497     13498     13493     13497     13499
     13493     13497     13500     13493     13539     13536     13493     13539     13540
     13493     13539     13541     13494     13493     13495     13494     13493     13497
     13494     13493     13539     13495     13493     13497     13495     13493     13539
     13497     13493     13539     13497     13500     13501     13497     13500     13531
     13498     13497     13499     13498     13497     13500     13499     13497     13500
     13500     13501     13502     13500     13501     13503     13500     13531     13529
     13500     13531     13532     13500     13531     13536     13501     13500     13531
     13501     13503     13504     13501     13503     13505     13501     13503     13506
     13502     13501     13503     13503     13506     13507     13503     13506     13508
     13503     13506     13529     13504     13503     13505     13504     13503     13506
     13505     13503     13506     13506     13508     13509     13506     13508     13510
     13506     13508     13518     13506     13529     13526     13506     13529     13530
     13506     13529     13531     13507     13506     13508     13507     13506     13529
     13508     13506     13529     13508     13510     13511     13508     13510     13512
     13508     13510     13513     13508     13518     13516     13508     13518     13519
     13508     13518     13523     13509     13508     13510     13509     13508     13518
     13510     13508     13518     13510     13513     13514     13510     13513     13515
     13510     13513     13516     13511     13510     13512     13511     13510     13513
     13512     13510     13513     13513     13516     13517     13513     13516     13518
     13513     13516     13542     13514     13513     13515     13514     13513     13516
     13515     13513     13516     13516     13518     13519     13516     13518     13523
     13516     13542     13543     13516     13542     13544     13516     13542     13548
     13517     13516     13518     13517     13516     13542     13518     13516     13542
     13518     13519     13520     13518     13519     13521     13518     13519     13522
     13518     13523     13524     13518     13523     13525     13518     13523     13526
     13519     13518     13523     13520     13519     13521     13520     13519     13522
     13521     13519     13522     13523     13526     13527     13523     13526     13528
     13523     13526     13529     13524     13523     13525     13524     13523     13526
     13525     13523     13526     13526     13529     13530     13526     13529     13531
     13527     13526     13528     13527     13526     13529     13528     13526     13529
     13529     13531     13532     13529     13531     13536     13530     13529     13531
     13531     13532     13533     13531     13532     13534     13531     13532     13535
     13531     13536     13537     13531     13536     13538     13531     13536     13539
     13532     13531     13536     13533     13532     13534     13533     13532     13535
     13534     13532     13535     13536     13539     13540     13536     13539     13541
     13537     13536     13538     13537     13536     13539     13538     13536     13539
     13540     13539     13541     13542     13544     13545     13542     13544     13546
     13542     13544     13547     13542     13548     13549     13542     13548     13550
     13542     13548     13551     13543     13542     13544     13543     13542     13548
     13544     13542     13548     13545     13544     13546     13545     13544     13547
     13546     13544     13547     13548     13551     13552     13548     13551     13553
     13548     13551     13554     13549     13548     13550     13549     13548     13551
     13550     13548     13551     13551     13554     13555     13551     13554     13556
     13551     13554     13557     13552     13551     13553     13552     13551     13554
     13553     13551     13554     13554     13557     13558     13554     13557     13559
     13554     13557     13563     13555     13554     13556     13555     13554     13557
     13556     13554     13557     13557     13559     13560     13557     13559     13561
     13557     13559     13562     13557     13563     13564     13557     13563     13565
     13557     13563     13566     13558     13557     13559     13558     13557     13563
     13559     13557     13563     13560     13559     13561     13560     13559     13562
     13561     13559     13562     13564     13563     13565     13564     13563     13566
     13565     13563     13566     13567     13569     13570     13567     13571     13572
     13567     13571     13573     13567     13571     13574     13567     13613     13610
     13567     13613     13614     13567     13613     13615     13568     13567     13569
     13568     13567     13571     13568     13567     13613     13569     13567     13571
     13569     13567     13613     13571     13567     13613     13571     13574     13575
     13571     13574     13605     13572     13571     13573     13572     13571     13574
     13573     13571     13574     13574     13575     13576     13574     13575     13577
     13574     13605     13603     13574     13605     13606     13574     13605     13610
     13575     13574     13605     13575     13577     13578     13575     13577     13579
     13575     13577     13580     13576     13575     13577     13577     13580     13581
     13577     13580     13582     13577     13580     13603     13578     13577     13579
     13578     13577     13580     13579     13577     13580     13580     13582     13583
     13580     13582     13584     13580     13582     13592     13580     13603     13600
     13580     13603     13604     13580     13603     13605     13581     13580     13582
     13581     13580     13603     13582     13580     13603     13582     13584     13585
     13582     13584     13586     13582     13584     13587     13582     13592     13590
     13582     13592     13593     13582     13592     13597     13583     13582     13584
     13583     13582     13592     13584     13582     13592     13584     13587     13588
     13584     13587     13589     13584     13587     13590     13585     13584     13586
     13585     13584     13587     13586     13584     13587     13587     13590     13591
     13587     13590     13592     13587     13590     13616     13588     13587     13589
     13588     13587     13590     13589     13587     13590     13590     13592     13593
     13590     13592     13597     13590     13616     13617     13590     13616     13618
     13590     13616     13622     13591     13590     13592     13591     13590     13616
     13592     13590     13616     13592     13593     13594     13592     13593     13595
     13592     13593     13596     13592     13597     13598     13592     13597     13599
     13592     13597     13600     13593     13592     13597     13594     13593     13595
     13594     13593     13596     13595     13593     13596     13597     13600     13601
     13597     13600     13602     13597     13600     13603     13598     13597     13599
     13598     13597     13600     13599     13597     13600     13600     13603     13604
     13600     13603     13605     13601     13600     13602     13601     13600     13603
     13602     13600     13603     13603     13605     13606     13603     13605     13610
     13604     13603     13605     13605     13606     13607     13605     13606     13608
     13605     13606     13609     13605     13610     13611     13605     13610     13612
     13605     13610     13613     13606     13605     13610     13607     13606     13608
     13607     13606     13609     13608     13606     13609     13610     13613     13614
     13610     13613     13615     13611     13610     13612     13611     13610     13613
     13612     13610     13613     13614     13613     13615     13616     13618     13619
     13616     13618     13620     13616     13618     13621     13616     13622     13623
     13616     13622     13624     13616     13622     13625     13617     13616     13618
     13617     13616     13622     13618     13616     13622     13619     13618     13620
     13619     13618     13621     13620     13618     13621     13622     13625     13626
     13622     13625     13627     13622     13625     13628     13623     13622     13624
     13623     13622     13625     13624     13622     13625     13625     13628     13629
     13625     13628     13630     13625     13628     13631     13626     13625     13627
     13626     13625     13628     13627     13625     13628     13628     13631     13632
     13628     13631     13633     13628     13631     13637     13629     13628     13630
     13629     13628     13631     13630     13628     13631     13631     13633     13634
     13631     13633     13635     13631     13633     13636     13631     13637     13638
     13631     13637     13639     13631     13637     13640     13632     13631     13633
     13632     13631     13637     13633     13631     13637     13634     13633     13635
     13634     13633     13636     13635     13633     13636     13638     13637     13639
     13638     13637     13640     13639     13637     13640     13641     13643     13644
     13641     13645     13646     13641     13645     13647     13641     13645     13648
     13641     13687     13684     13641     13687     13688     13641     13687     13689
     13642     13641     13643     13642     13641     13645     13642     13641     13687
     13643     13641     13645     13643     13641     13687     13645     13641     13687
     13645     13648     13649     13645     13648     13679     13646     13645     13647
     13646     13645     13648     13647     13645     13648     13648     13649     13650
     13648     13649     13651     13648     13679     13677     13648     13679     13680
     13648     13679     13684     13649     13648     13679     13649     13651     13652
     13649     13651     13653     13649     13651     13654     13650     13649     13651
     13651     13654     13655     13651     13654     13656     13651     13654     13677
     13652     13651     13653     13652     13651     13654     13653     13651     13654
     13654     13656     13657     13654     13656     13658     13654     13656     13666
     13654     13677     13674     13654     13677     13678     13654     13677     13679
     13655     13654     13656     13655     13654     13677     13656     13654     13677
     13656     13658     13659     13656     13658     13660     13656     13658     13661
     13656     13666     13664     13656     13666     13667     13656     13666     13671
     13657     13656     13658     13657     13656     13666     13658     13656     13666
     13658     13661     13662     13658     13661     13663     13658     13661     13664
     13659     13658     13660     13659     13658     13661     13660     13658     13661
     13661     13664     13665     13661     13664     13666     13661     13664     13690
     13662     13661     13663     13662     13661     13664     13663     13661     13664
     13664     13666     13667     13664     13666     13671     13664     13690     13691
     13664     13690     13692     13664     13690     13696     13665     13664     13666
     13665     13664     13690     13666     13664     13690     13666     13667     13668
     13666     13667     13669     13666     13667     13670     13666     13671     13672
     13666     13671     13673     13666     13671     13674     13667     13666     13671
     13668     13667     13669     13668     13667     13670     13669     13667     13670
     13671     13674     13675     13671     13674     13676     13671     13674     13677
     13672     13671     13673     13672     13671     13674     13673     13671     13674
     13674     13677     13678     13674     13677     13679     13675     13674     13676
     13675     13674     13677     13676     13674     13677     13677     13679     13680
     13677     13679     13684     13678     13677     13679     13679     13680     13681
     13679     13680     13682     13679     13680     13683     13679     13684     13685
     13679     13684     13686     13679     13684     13687     13680     13679     13684
     13681     13680     13682     13681     13680     13683     13682     13680     13683
     13684     13687     13688     13684     13687     13689     13685     13684     13686
     13685     13684     13687     13686     13684     13687     13688     13687     13689
     13690     13692     13693     13690     13692     13694     13690     13692     13695
     13690     13696     13697     13690     13696     13698     13690     13696     13699
     13691     13690     13692     13691     13690     13696     13692     13690     13696
     13693     13692     13694     13693     13692     13695     13694     13692     13695
     13696     13699     13700     13696     13699     13701     13696     13699     13702
     13697     13696     13698     13697     13696     13699     13698     13696     13699
     13699     13702     13703     13699     13702     13704     13699     13702     13705
     13700     13699     13701     13700     13699     13702     13701     13699     13702
     13702     13705     13706     13702     13705     13707     13702     13705     13711
     13703     13702     13704     13703     13702     13705     13704     13702     13705
     13705     13707     13708     13705     13707     13709     13705     13707     13710
     13705     13711     13712     13705     13711     13713     13705     13711     13714
     13706     13705     13707     13706     13705     13711     13707     13705     13711
     13708     13707     13709     13708     13707     13710     13709     13707     13710
     13712     13711     13713     13712     13711     13714     13713     13711     13714
     13715     13716     13717     13715     13716     13718     13715     13716     13719
     13715     13720     13721     13715     13720     13722     13715     13720     13723
     13715     13724     13725     13715     13724     13726     13715     13724     13727
     13715     13728     13729     13715     13728     13730     13715     13728     13731
     13716     13715     13720     13716     13715     13724     13716     13715     13728
     13717     13716     13718     13717     13716     13719     13718     13716     13719
     13720     13715     13724     13720     13715     13728     13721     13720     13722
     13721     13720     13723     13722     13720     13723     13724     13715     13728
     13725     13724     13726     13725     13724     13727     13726     13724     13727
     13728     13731     13732     13728     13731     13733     13728     13731     13738
     13729     13728     13730     13729     13728     13731     13730     13728     13731
     13731     13738     13734     13732     13731     13733     13732     13731     13738
     13733     13731     13738     13734     13737     13739     13735     13734     13736
     13735     13734     13737     13735     13734     13738     13736     13734     13737
     13736     13734     13738     13737     13734     13738     13737     13739     13740
     13737     13739     13741     13737     13739     13744     13739     13744     13742
     13739     13744     13745     13739     13744     13746     13740     13739     13741
     13740     13739     13744     13741     13739     13744     13742     13744     13745
     13742     13744     13746     13742     13794     13795     13742     13794     13796
     13743     13742     13744     13743     13742     13794     13744     13742     13794
     13744     13746     13747     13744     13746     13748     13744     13746     13750
     13745     13744     13746     13746     13748     13749     13746     13750     13751
     13746     13750     13752     13747     13746     13748     13747     13746     13750
     13748     13746     13750     13750     13752     13753     13750     13752     13754
     13751     13750     13752     13752     13754     13755     13752     13754     13756
     13752     13754     13757     13753     13752     13754     13754     13757     13758
     13754     13757     13759     13754     13757     13760     13755     13754     13756
     13755     13754     13757     13756     13754     13757     13757     13760     13761
     13757     13760     13762     13757     13760     13763     13758     13757     13759
     13758     13757     13760     13759     13757     13760     13760     13763     13764
     13760     13763     13765     13760     13763     13766     13761     13760     13762
     13761     13760     13763     13762     13760     13763     13763     13766     13767
     13763     13766     13768     13763     13766     13769     13764     13763     13765
     13764     13763     13766     13765     13763     13766     13766     13769     13770
     13766     13769     13771     13766     13769     13772     13767     13766     13768
     13767     13766     13769     13768     13766     13769     13769     13772     13773
     13769     13772     13774     13769     13772     13775     13770     13769     13771
     13770     13769     13772     13771     13769     13772     13772     13775     13776
     13772     13775     13777     13772     13775     13778     13773     13772     13774
     13773     13772     13775     13774     13772     13775     13775     13778     13779
     13775     13778     13780     13775     13778     13781     13776     13775     13777
     13776     13775     13778     13777     13775     13778     13778     13781     13782
     13778     13781     13783     13778     13781     13784     13779     13778     13780
     13779     13778     13781     13780     13778     13781     13781     13784     13785
     13781     13784     13786     13781     13784     13787     13782     13781     13783
     13782     13781     13784     13783     13781     13784     13784     13787     13788
     13784     13787     13789     13784     13787     13790     13785     13784     13786
     13785     13784     13787     13786     13784     13787     13787     13790     13791
     13787     13790     13792     13787     13790     13793     13788     13787     13789
     13788     13787     13790     13789     13787     13790     13791     13790     13792
     13791     13790     13793     13792     13790     13793     13794     13796     13797
     13794     13796     13798     13794     13796     13799     13795     13794     13796
     13796     13799     13800     13796     13799     13801     13796     13799     13802
     13797     13796     13798     13797     13796     13799     13798     13796     13799
     13799     13802     13803     13799     13802     13804     13799     13802     13805
     13800     13799     13801     13800     13799     13802     13801     13799     13802
     13802     13805     13806     13802     13805     13807     13802     13805     13808
     13803     13802     13804     13803     13802     13805     13804     13802     13805
     13805     13808     13809     13805     13808     13810     13805     13808     13811
     13806     13805     13807     13806     13805     13808     13807     13805     13808
     13808     13811     13812     13808     13811     13813     13808     13811     13814
     13809     13808     13810     13809     13808     13811     13810     13808     13811
     13811     13814     13815     13811     13814     13816     13811     13814     13817
     13812     13811     13813     13812     13811     13814     13813     13811     13814
     13814     13817     13818     13814     13817     13819     13815     13814     13816
     13815     13814     13817     13816     13814     13817     13817     13819     13820
     13817     13819     13821     13818     13817     13819     13819     13821     13822
     13819     13821     13823     13819     13821     13824     13820     13819     13821
     13821     13824     13825     13821     13824     13826     13821     13824     13827
     13822     13821     13823     13822     13821     13824     13823     13821     13824
     13824     13827     13828     13824     13827     13829     13824     13827     13830
     13825     13824     13826     13825     13824     13827     13826     13824     13827
     13827     13830     13831     13827     13830     13832     13827     13830     13833
     13828     13827     13829     13828     13827     13830     13829     13827     13830
     13830     13833     13834     13830     13833     13835     13830     13833     13836
     13831     13830     13832     13831     13830     13833     13832     13830     13833
     13833     13836     13837     13833     13836     13838     13833     13836     13839
     13834     13833     13835     13834     13833     13836     13835     13833     13836
     13836     13839     13840     13836     13839     13841     13836     13839     13842
     13837     13836     13838     13837     13836     13839     13838     13836     13839
     13839     13842     13843     13839     13842     13844     13839     13842     13845
     13840     13839     13841     13840     13839     13842     13841     13839     13842
     13843     13842     13844     13843     13842     13845     13844     13842     13845
     13846     13850     13851     13846     13850     13852     13846     13850     13855
     13847     13846     13848     13847     13846     13849     13847     13846     13850
     13848     13846     13849     13848     13846     13850     13849     13846     13850
     13850     13852     13853     13850     13852     13854     13850     13855     13856
     13850     13855     13857     13850     13855     13861     13851     13850     13852
     13851     13850     13855     13852     13850     13855     13853     13852     13854
     13855     13861     13858     13856     13855     13857     13856     13855     13861
     13857     13855     13861     13858     13862     13863     13859     13858     13860
     13859     13858     13861     13859     13858     13862     13860     13858     13861
     13860     13858     13862     13861     13858     13862     13862     13863     13864
     13862     13863     13865     13862     13863     13866     13863     13866     13867
     13863     13866     13868     13863     13866     13874     13864     13863     13865
     13864     13863     13866     13865     13863     13866     13866     13868     13869
     13866     13874     13875     13866     13874     13876     13866     13874     13877
     13867     13866     13868     13867     13866     13874     13868     13866     13874
     13868     13869     13870     13868     13869     13871     13869     13871     13872
     13869     13871     13873     13869     13871     13883     13870     13869     13871
     13871     13883     13884     13871     13883     13885     13871     13883     13886
     13872     13871     13873     13872     13871     13883     13873     13871     13883
     13874     13877     13878     13875     13874     13876     13875     13874     13877
     13876     13874     13877     13877     13878     13879     13877     13878     13880
     13878     13880     13881     13878     13880     13882     13878     13880     13930
     13879     13878     13880     13880     13930     13931     13880     13930     13932
     13880     13930     13933     13881     13880     13882     13881     13880     13930
     13882     13880     13930     13883     13886     13887     13883     13886     13888
     13883     13886     13889     13884     13883     13885     13884     13883     13886
     13885     13883     13886     13886     13889     13890     13886     13889     13891
     13887     13886     13888     13887     13886     13889     13888     13886     13889
     13889     13891     13892     13889     13891     13893     13890     13889     13891
     13891     13893     13894     13891     13893     13895     13891     13893     13896
     13892     13891     13893     13893     13896     13897     13893     13896     13898
     13894     13893     13895     13894     13893     13896     13895     13893     13896
     13896     13898     13899     13896     13898     13900     13897     13896     13898
     13898     13900     13901     13898     13900     13902     13898     13900     13903
     13899     13898     13900     13900     13903     13904     13900     13903     13905
     13901     13900     13902     13901     13900     13903     13902     13900     13903
     13903     13905     13906     13903     13905     13907     13904     13903     13905
     13905     13907     13908     13905     13907     13909     13905     13907     13910
     13906     13905     13907     13907     13910     13911     13907     13910     13912
     13908     13907     13909     13908     13907     13910     13909     13907     13910
     13910     13912     13913     13910     13912     13914     13911     13910     13912
     13912     13914     13915     13912     13914     13916     13912     13914     13917
     13913     13912     13914     13914     13917     13918     13914     13917     13919
     13914     13917     13920     13915     13914     13916     13915     13914     13917
     13916     13914     13917     13917     13920     13921     13917     13920     13922
     13917     13920     13923     13918     13917     13919     13918     13917     13920
     13919     13917     13920     13920     13923     13924     13920     13923     13925
     13920     13923     13926     13921     13920     13922     13921     13920     13923
     13922     13920     13923     13923     13926     13927     13923     13926     13928
     13923     13926     13929     13924     13923     13925     13924     13923     13926
     13925     13923     13926     13927     13926     13928     13927     13926     13929
     13928     13926     13929     13930     13933     13934     13930     13933     13935
     13930     13933     13936     13931     13930     13932     13931     13930     13933
     13932     13930     13933     13933     13936     13937     13933     13936     13938
     13933     13936     13939     13934     13933     13935     13934     13933     13936
     13935     13933     13936     13936     13939     13940     13936     13939     13941
     13936     13939     13942     13937     13936     13938     13937     13936     13939
     13938     13936     13939     13939     13942     13943     13939     13942     13944
     13939     13942     13945     13940     13939     13941     13940     13939     13942
     13941     13939     13942     13942     13945     13946     13942     13945     13947
     13942     13945     13948     13943     13942     13944     13943     13942     13945
     13944     13942     13945     13945     13948     13949     13945     13948     13950
     13945     13948     13951     13946     13945     13947     13946     13945     13948
     13947     13945     13948     13948     13951     13952     13948     13951     13953
     13948     13951     13954     13949     13948     13950     13949     13948     13951
     13950     13948     13951     13951     13954     13955     13951     13954     13956
     13951     13954     13957     13952     13951     13953     13952     13951     13954
     13953     13951     13954     13954     13957     13958     13954     13957     13959
     13954     13957     13960     13955     13954     13956     13955     13954     13957
     13956     13954     13957     13957     13960     13961     13957     13960     13962
     13957     13960     13963     13958     13957     13959     13958     13957     13960
     13959     13957     13960     13960     13963     13964     13960     13963     13965
     13960     13963     13966     13961     13960     13962     13961     13960     13963
     13962     13960     13963     13963     13966     13967     13963     13966     13968
     13963     13966     13969     13964     13963     13965     13964     13963     13966
     13965     13963     13966     13966     13969     13970     13966     13969     13971
     13966     13969     13972     13967     13966     13968     13967     13966     13969
     13968     13966     13969     13969     13972     13973     13969     13972     13974
     13969     13972     13975     13970     13969     13971     13970     13969     13972
     13971     13969     13972     13972     13975     13976     13972     13975     13977
     13972     13975     13978     13973     13972     13974     13973     13972     13975
     13974     13972     13975     13976     13975     13977     13976     13975     13978
     13977     13975     13978     13979     13983     13984     13979     13983     13985
     13979     13983     13986     13980     13979     13981     13980     13979     13982
     13980     13979     13983     13981     13979     13982     13981     13979     13983
     13982     13979     13983     13983     13986     13987     13983     13986     13988
     13983     13986     13992     13984     13983     13985     13984     13983     13986
     13985     13983     13986     13986     13992     13989     13987     13986     13988
     13987     13986     13992     13988     13986     13992     13989     13993     13994
     13990     13989     13991     13990     13989     13992     13990     13989     13993
     13991     13989     13992     13991     13989     13993     13992     13989     13993
     13993     13994     13995     13993     13994     13996     13993     13994     13997
     13994     13997     13998     13994     13997     13999     13994     13997     14005
     13995     13994     13996     13995     13994     13997     13996     13994     13997
     13997     13999     14000     13997     14005     14006     13997     14005     14007
     13997     14005     14008     13998     13997     13999     13998     13997     14005
     13999     13997     14005     13999     14000     14001     13999     14000     14002
     14000     14002     14003     14000     14002     14004     14000     14002     14014
     14001     14000     14002     14002     14014     14015     14002     14014     14016
     14002     14014     14017     14003     14002     14004     14003     14002     14014
     14004     14002     14014     14005     14008     14009     14006     14005     14007
     14006     14005     14008     14007     14005     14008     14008     14009     14010
     14008     14009     14011     14009     14011     14012     14009     14011     14013
     14009     14011     14061     14010     14009     14011     14011     14061     14062
     14011     14061     14063     14011     14061     14064     14012     14011     14013
     14012     14011     14061     14013     14011     14061     14014     14017     14018
     14014     14017     14019     14014     14017     14020     14015     14014     14016
     14015     14014     14017     14016     14014     14017     14017     14020     14021
     14017     14020     14022     14018     14017     14019     14018     14017     14020
     14019     14017     14020     14020     14022     14023     14020     14022     14024
     14021     14020     14022     14022     14024     14025     14022     14024     14026
     14022     14024     14027     14023     14022     14024     14024     14027     14028
     14024     14027     14029     14025     14024     14026     14025     14024     14027
     14026     14024     14027     14027     14029     14030     14027     14029     14031
     14028     14027     14029     14029     14031     14032     14029     14031     14033
     14029     14031     14034     14030     14029     14031     14031     14034     14035
     14031     14034     14036     14032     14031     14033     14032     14031     14034
     14033     14031     14034     14034     14036     14037     14034     14036     14038
     14035     14034     14036     14036     14038     14039     14036     14038     14040
     14036     14038     14041     14037     14036     14038     14038     14041     14042
     14038     14041     14043     14039     14038     14040     14039     14038     14041
     14040     14038     14041     14041     14043     14044     14041     14043     14045
     14042     14041     14043     14043     14045     14046     14043     14045     14047
     14043     14045     14048     14044     14043     14045     14045     14048     14049
     14045     14048     14050     14045     14048     14051     14046     14045     14047
     14046     14045     14048     14047     14045     14048     14048     14051     14052
     14048     14051     14053     14048     14051     14054     14049     14048     14050
     14049     14048     14051     14050     14048     14051     14051     14054     14055
     14051     14054     14056     14051     14054     14057     14052     14051     14053
     14052     14051     14054     14053     14051     14054     14054     14057     14058
     14054     14057     14059     14054     14057     14060     14055     14054     14056
     14055     14054     14057     14056     14054     14057     14058     14057     14059
     14058     14057     14060     14059     14057     14060     14061     14064     14065
     14061     14064     14066     14061     14064     14067     14062     14061     14063
     14062     14061     14064     14063     14061     14064     14064     14067     14068
     14064     14067     14069     14064     14067     14070     14065     14064     14066
     14065     14064     14067     14066     14064     14067     14067     14070     14071
     14067     14070     14072     14067     14070     14073     14068     14067     14069
     14068     14067     14070     14069     14067     14070     14070     14073     14074
     14070     14073     14075     14070     14073     14076     14071     14070     14072
     14071     14070     14073     14072     14070     14073     14073     14076     14077
     14073     14076     14078     14073     14076     14079     14074     14073     14075
     14074     14073     14076     14075     14073     14076     14076     14079     14080
     14076     14079     14081     14076     14079     14082     14077     14076     14078
     14077     14076     14079     14078     14076     14079     14079     14082     14083
     14079     14082     14084     14079     14082     14085     14080     14079     14081
     14080     14079     14082     14081     14079     14082     14082     14085     14086
     14082     14085     14087     14082     14085     14088     14083     14082     14084
     14083     14082     14085     14084     14082     14085     14085     14088     14089
     14085     14088     14090     14085     14088     14091     14086     14085     14087
     14086     14085     14088     14087     14085     14088     14088     14091     14092
     14088     14091     14093     14088     14091     14094     14089     14088     14090
     14089     14088     14091     14090     14088     14091     14091     14094     14095
     14091     14094     14096     14091     14094     14097     14092     14091     14093
     14092     14091     14094     14093     14091     14094     14094     14097     14098
     14094     14097     14099     14094     14097     14100     14095     14094     14096
     14095     14094     14097     14096     14094     14097     14097     14100     14101
     14097     14100     14102     14097     14100     14103     14098     14097     14099
     14098     14097     14100     14099     14097     14100     14100     14103     14104
     14100     14103     14105     14100     14103     14106     14101     14100     14102
     14101     14100     14103     14102     14100     14103     14103     14106     14107
     14103     14106     14108     14103     14106     14109     14104     14103     14105
     14104     14103     14106     14105     14103     14106     14107     14106     14108
     14107     14106     14109     14108     14106     14109     14110     14112     14113
     14110     14114     14115     14110     14114     14116     14110     14114     14117
     14110     14156     14153     14110     14156     14157     14110     14156     14158
     14111     14110     14112     14111     14110     14114     14111     14110     14156
     14112     14110     14114     14112     14110     14156     14114     14110     14156
     14114     14117     14118     14114     14117     14148     14115     14114     14116
     14115     14114     14117     14116     14114     14117     14117     14118     14119
     14117     14118     14120     14117     14148     14146     14117     14148     14149
     14117     14148     14153     14118     14117     14148     14118     14120     14121
     14118     14120     14122     14118     14120     14123     14119     14118     14120
     14120     14123     14124     14120     14123     14125     14120     14123     14146
     14121     14120     14122     14121     14120     14123     14122     14120     14123
     14123     14125     14126     14123     14125     14127     14123     14125     14135
     14123     14146     14143     14123     14146     14147     14123     14146     14148
     14124     14123     14125     14124     14123     14146     14125     14123     14146
     14125     14127     14128     14125     14127     14129     14125     14127     14130
     14125     14135     14133     14125     14135     14136     14125     14135     14140
     14126     14125     14127     14126     14125     14135     14127     14125     14135
     14127     14130     14131     14127     14130     14132     14127     14130     14133
     14128     14127     14129     14128     14127     14130     14129     14127     14130
     14130     14133     14134     14130     14133     14135     14130     14133     14159
     14131     14130     14132     14131     14130     14133     14132     14130     14133
     14133     14135     14136     14133     14135     14140     14133     14159     14160
     14133     14159     14161     14133     14159     14165     14134     14133     14135
     14134     14133     14159     14135     14133     14159     14135     14136     14137
     14135     14136     14138     14135     14136     14139     14135     14140     14141
     14135     14140     14142     14135     14140     14143     14136     14135     14140
     14137     14136     14138     14137     14136     14139     14138     14136     14139
     14140     14143     14144     14140     14143     14145     14140     14143     14146
     14141     14140     14142     14141     14140     14143     14142     14140     14143
     14143     14146     14147     14143     14146     14148     14144     14143     14145
     14144     14143     14146     14145     14143     14146     14146     14148     14149
     14146     14148     14153     14147     14146     14148     14148     14149     14150
     14148     14149     14151     14148     14149     14152     14148     14153     14154
     14148     14153     14155     14148     14153     14156     14149     14148     14153
     14150     14149     14151     14150     14149     14152     14151     14149     14152
     14153     14156     14157     14153     14156     14158     14154     14153     14155
     14154     14153     14156     14155     14153     14156     14157     14156     14158
     14159     14161     14162     14159     14161     14163     14159     14161     14164
     14159     14165     14166     14159     14165     14167     14159     14165     14168
     14160     14159     14161     14160     14159     14165     14161     14159     14165
     14162     14161     14163     14162     14161     14164     14163     14161     14164
     14165     14168     14169     14165     14168     14170     14165     14168     14171
     14166     14165     14167     14166     14165     14168     14167     14165     14168
     14168     14171     14172     14168     14171     14173     14168     14171     14174
     14169     14168     14170     14169     14168     14171     14170     14168     14171
     14171     14174     14175     14171     14174     14176     14171     14174     14180
     14172     14171     14173     14172     14171     14174     14173     14171     14174
     14174     14176     14177     14174     14176     14178     14174     14176     14179
     14174     14180     14181     14174     14180     14182     14174     14180     14183
     14175     14174     14176     14175     14174     14180     14176     14174     14180
     14177     14176     14178     14177     14176     14179     14178     14176     14179
     14181     14180     14182     14181     14180     14183     14182     14180     14183
     14184     14188     14189     14184     14188     14190     14184     14188     14191
     14185     14184     14186     14185     14184     14187     14185     14184     14188
     14186     14184     14187     14186     14184     14188     14187     14184     14188
     14188     14191     14192     14188     14191     14193     14188     14191     14197
     14189     14188     14190     14189     14188     14191     14190     14188     14191
     14191     14197     14194     14192     14191     14193     14192     14191     14197
     14193     14191     14197     14194     14198     14199     14195     14194     14196
     14195     14194     14197     14195     14194     14198     14196     14194     14197
     14196     14194     14198     14197     14194     14198     14198     14199     14200
     14198     14199     14201     14198     14199     14202     14199     14202     14203
     14199     14202     14204     14199     14202     14210     14200     14199     14201
     14200     14199     14202     14201     14199     14202     14202     14204     14205
     14202     14210     14211     14202     14210     14212     14202     14210     14213
     14203     14202     14204     14203     14202     14210     14204     14202     14210
     14204     14205     14206     14204     14205     14207     14205     14207     14208
     14205     14207     14209     14205     14207     14219     14206     14205     14207
     14207     14219     14220     14207     14219     14221     14207     14219     14222
     14208     14207     14209     14208     14207     14219     14209     14207     14219
     14210     14213     14214     14211     14210     14212     14211     14210     14213
     14212     14210     14213     14213     14214     14215     14213     14214     14216
     14214     14216     14217     14214     14216     14218     14214     14216     14266
     14215     14214     14216     14216     14266     14267     14216     14266     14268
     14216     14266     14269     14217     14216     14218     14217     14216     14266
     14218     14216     14266     14219     14222     14223     14219     14222     14224
     14219     14222     14225     14220     14219     14221     14220     14219     14222
     14221     14219     14222     14222     14225     14226     14222     14225     14227
     14223     14222     14224     14223     14222     14225     14224     14222     14225
     14225     14227     14228     14225     14227     14229     14226     14225     14227
     14227     14229     14230     14227     14229     14231     14227     14229     14232
     14228     14227     14229     14229     14232     14233     14229     14232     14234
     14230     14229     14231     14230     14229     14232     14231     14229     14232
     14232     14234     14235     14232     14234     14236     14233     14232     14234
     14234     14236     14237     14234     14236     14238     14234     14236     14239
     14235     14234     14236     14236     14239     14240     14236     14239     14241
     14237     14236     14238     14237     14236     14239     14238     14236     14239
     14239     14241     14242     14239     14241     14243     14240     14239     14241
     14241     14243     14244     14241     14243     14245     14241     14243     14246
     14242     14241     14243     14243     14246     14247     14243     14246     14248
     14244     14243     14245     14244     14243     14246     14245     14243     14246
     14246     14248     14249     14246     14248     14250     14247     14246     14248
     14248     14250     14251     14248     14250     14252     14248     14250     14253
     14249     14248     14250     14250     14253     14254     14250     14253     14255
     14250     14253     14256     14251     14250     14252     14251     14250     14253
     14252     14250     14253     14253     14256     14257     14253     14256     14258
     14253     14256     14259     14254     14253     14255     14254     14253     14256
     14255     14253     14256     14256     14259     14260     14256     14259     14261
     14256     14259     14262     14257     14256     14258     14257     14256     14259
     14258     14256     14259     14259     14262     14263     14259     14262     14264
     14259     14262     14265     14260     14259     14261     14260     14259     14262
     14261     14259     14262     14263     14262     14264     14263     14262     14265
     14264     14262     14265     14266     14269     14270     14266     14269     14271
     14266     14269     14272     14267     14266     14268     14267     14266     14269
     14268     14266     14269     14269     14272     14273     14269     14272     14274
     14269     14272     14275     14270     14269     14271     14270     14269     14272
     14271     14269     14272     14272     14275     14276     14272     14275     14277
     14272     14275     14278     14273     14272     14274     14273     14272     14275
     14274     14272     14275     14275     14278     14279     14275     14278     14280
     14275     14278     14281     14276     14275     14277     14276     14275     14278
     14277     14275     14278     14278     14281     14282     14278     14281     14283
     14278     14281     14284     14279     14278     14280     14279     14278     14281
     14280     14278     14281     14281     14284     14285     14281     14284     14286
     14281     14284     14287     14282     14281     14283     14282     14281     14284
     14283     14281     14284     14284     14287     14288     14284     14287     14289
     14284     14287     14290     14285     14284     14286     14285     14284     14287
     14286     14284     14287     14287     14290     14291     14287     14290     14292
     14287     14290     14293     14288     14287     14289     14288     14287     14290
     14289     14287     14290     14290     14293     14294     14290     14293     14295
     14290     14293     14296     14291     14290     14292     14291     14290     14293
     14292     14290     14293     14293     14296     14297     14293     14296     14298
     14293     14296     14299     14294     14293     14295     14294     14293     14296
     14295     14293     14296     14296     14299     14300     14296     14299     14301
     14296     14299     14302     14297     14296     14298     14297     14296     14299
     14298     14296     14299     14299     14302     14303     14299     14302     14304
     14299     14302     14305     14300     14299     14301     14300     14299     14302
     14301     14299     14302     14302     14305     14306     14302     14305     14307
     14302     14305     14308     14303     14302     14304     14303     14302     14305
     14304     14302     14305     14305     14308     14309     14305     14308     14310
     14305     14308     14311     14306     14305     14307     14306     14305     14308
     14307     14305     14308     14308     14311     14312     14308     14311     14313
     14308     14311     14314     14309     14308     14310     14309     14308     14311
     14310     14308     14311     14312     14311     14313     14312     14311     14314
     14313     14311     14314     14315     14317     14318     14315     14319     14320
     14315     14319     14321     14315     14319     14322     14315     14361     14358
     14315     14361     14362     14315     14361     14363     14316     14315     14317
     14316     14315     14319     14316     14315     14361     14317     14315     14319
     14317     14315     14361     14319     14315     14361     14319     14322     14323
     14319     14322     14353     14320     14319     14321     14320     14319     14322
     14321     14319     14322     14322     14323     14324     14322     14323     14325
     14322     14353     14351     14322     14353     14354     14322     14353     14358
     14323     14322     14353     14323     14325     14326     14323     14325     14327
     14323     14325     14328     14324     14323     14325     14325     14328     14329
     14325     14328     14330     14325     14328     14351     14326     14325     14327
     14326     14325     14328     14327     14325     14328     14328     14330     14331
     14328     14330     14332     14328     14330     14340     14328     14351     14348
     14328     14351     14352     14328     14351     14353     14329     14328     14330
     14329     14328     14351     14330     14328     14351     14330     14332     14333
     14330     14332     14334     14330     14332     14335     14330     14340     14338
     14330     14340     14341     14330     14340     14345     14331     14330     14332
     14331     14330     14340     14332     14330     14340     14332     14335     14336
     14332     14335     14337     14332     14335     14338     14333     14332     14334
     14333     14332     14335     14334     14332     14335     14335     14338     14339
     14335     14338     14340     14335     14338     14364     14336     14335     14337
     14336     14335     14338     14337     14335     14338     14338     14340     14341
     14338     14340     14345     14338     14364     14365     14338     14364     14366
     14338     14364     14370     14339     14338     14340     14339     14338     14364
     14340     14338     14364     14340     14341     14342     14340     14341     14343
     14340     14341     14344     14340     14345     14346     14340     14345     14347
     14340     14345     14348     14341     14340     14345     14342     14341     14343
     14342     14341     14344     14343     14341     14344     14345     14348     14349
     14345     14348     14350     14345     14348     14351     14346     14345     14347
     14346     14345     14348     14347     14345     14348     14348     14351     14352
     14348     14351     14353     14349     14348     14350     14349     14348     14351
     14350     14348     14351     14351     14353     14354     14351     14353     14358
     14352     14351     14353     14353     14354     14355     14353     14354     14356
     14353     14354     14357     14353     14358     14359     14353     14358     14360
     14353     14358     14361     14354     14353     14358     14355     14354     14356
     14355     14354     14357     14356     14354     14357     14358     14361     14362
     14358     14361     14363     14359     14358     14360     14359     14358     14361
     14360     14358     14361     14362     14361     14363     14364     14366     14367
     14364     14366     14368     14364     14366     14369     14364     14370     14371
     14364     14370     14372     14364     14370     14373     14365     14364     14366
     14365     14364     14370     14366     14364     14370     14367     14366     14368
     14367     14366     14369     14368     14366     14369     14370     14373     14374
     14370     14373     14375     14370     14373     14376     14371     14370     14372
     14371     14370     14373     14372     14370     14373     14373     14376     14377
     14373     14376     14378     14373     14376     14379     14374     14373     14375
     14374     14373     14376     14375     14373     14376     14376     14379     14380
     14376     14379     14381     14376     14379     14385     14377     14376     14378
     14377     14376     14379     14378     14376     14379     14379     14381     14382
     14379     14381     14383     14379     14381     14384     14379     14385     14386
     14379     14385     14387     14379     14385     14388     14380     14379     14381
     14380     14379     14385     14381     14379     14385     14382     14381     14383
     14382     14381     14384     14383     14381     14384     14386     14385     14387
     14386     14385     14388     14387     14385     14388     14389     14391     14392
     14389     14393     14394     14389     14393     14395     14389     14393     14396
     14389     14435     14432     14389     14435     14436     14389     14435     14437
     14390     14389     14391     14390     14389     14393     14390     14389     14435
     14391     14389     14393     14391     14389     14435     14393     14389     14435
     14393     14396     14397     14393     14396     14427     14394     14393     14395
     14394     14393     14396     14395     14393     14396     14396     14397     14398
     14396     14397     14399     14396     14427     14425     14396     14427     14428
     14396     14427     14432     14397     14396     14427     14397     14399     14400
     14397     14399     14401     14397     14399     14402     14398     14397     14399
     14399     14402     14403     14399     14402     14404     14399     14402     14425
     14400     14399     14401     14400     14399     14402     14401     14399     14402
     14402     14404     14405     14402     14404     14406     14402     14404     14414
     14402     14425     14422     14402     14425     14426     14402     14425     14427
     14403     14402     14404     14403     14402     14425     14404     14402     14425
     14404     14406     14407     14404     14406     14408     14404     14406     14409
     14404     14414     14412     14404     14414     14415     14404     14414     14419
     14405     14404     14406     14405     14404     14414     14406     14404     14414
     14406     14409     14410     14406     14409     14411     14406     14409     14412
     14407     14406     14408     14407     14406     14409     14408     14406     14409
     14409     14412     14413     14409     14412     14414     14409     14412     14438
     14410     14409     14411     14410     14409     14412     14411     14409     14412
     14412     14414     14415     14412     14414     14419     14412     14438     14439
     14412     14438     14440     14412     14438     14444     14413     14412     14414
     14413     14412     14438     14414     14412     14438     14414     14415     14416
     14414     14415     14417     14414     14415     14418     14414     14419     14420
     14414     14419     14421     14414     14419     14422     14415     14414     14419
     14416     14415     14417     14416     14415     14418     14417     14415     14418
     14419     14422     14423     14419     14422     14424     14419     14422     14425
     14420     14419     14421     14420     14419     14422     14421     14419     14422
     14422     14425     14426     14422     14425     14427     14423     14422     14424
     14423     14422     14425     14424     14422     14425     14425     14427     14428
     14425     14427     14432     14426     14425     14427     14427     14428     14429
     14427     14428     14430     14427     14428     14431     14427     14432     14433
     14427     14432     14434     14427     14432     14435     14428     14427     14432
     14429     14428     14430     14429     14428     14431     14430     14428     14431
     14432     14435     14436     14432     14435     14437     14433     14432     14434
     14433     14432     14435     14434     14432     14435     14436     14435     14437
     14438     14440     14441     14438     14440     14442     14438     14440     14443
     14438     14444     14445     14438     14444     14446     14438     14444     14447
     14439     14438     14440     14439     14438     14444     14440     14438     14444
     14441     14440     14442     14441     14440     14443     14442     14440     14443
     14444     14447     14448     14444     14447     14449     14444     14447     14450
     14445     14444     14446     14445     14444     14447     14446     14444     14447
     14447     14450     14451     14447     14450     14452     14447     14450     14453
     14448     14447     14449     14448     14447     14450     14449     14447     14450
     14450     14453     14454     14450     14453     14455     14450     14453     14459
     14451     14450     14452     14451     14450     14453     14452     14450     14453
     14453     14455     14456     14453     14455     14457     14453     14455     14458
     14453     14459     14460     14453     14459     14461     14453     14459     14462
     14454     14453     14455     14454     14453     14459     14455     14453     14459
     14456     14455     14457     14456     14455     14458     14457     14455     14458
     14460     14459     14461     14460     14459     14462     14461     14459     14462
     14463     14465     14466     14463     14467     14468     14463     14467     14469
     14463     14467     14470     14463     14509     14506     14463     14509     14510
     14463     14509     14511     14464     14463     14465     14464     14463     14467
     14464     14463     14509     14465     14463     14467     14465     14463     14509
     14467     14463     14509     14467     14470     14471     14467     14470     14501
     14468     14467     14469     14468     14467     14470     14469     14467     14470
     14470     14471     14472     14470     14471     14473     14470     14501     14499
     14470     14501     14502     14470     14501     14506     14471     14470     14501
     14471     14473     14474     14471     14473     14475     14471     14473     14476
     14472     14471     14473     14473     14476     14477     14473     14476     14478
     14473     14476     14499     14474     14473     14475     14474     14473     14476
     14475     14473     14476     14476     14478     14479     14476     14478     14480
     14476     14478     14488     14476     14499     14496     14476     14499     14500
     14476     14499     14501     14477     14476     14478     14477     14476     14499
     14478     14476     14499     14478     14480     14481     14478     14480     14482
     14478     14480     14483     14478     14488     14486     14478     14488     14489
     14478     14488     14493     14479     14478     14480     14479     14478     14488
     14480     14478     14488     14480     14483     14484     14480     14483     14485
     14480     14483     14486     14481     14480     14482     14481     14480     14483
     14482     14480     14483     14483     14486     14487     14483     14486     14488
     14483     14486     14512     14484     14483     14485     14484     14483     14486
     14485     14483     14486     14486     14488     14489     14486     14488     14493
     14486     14512     14513     14486     14512     14514     14486     14512     14518
     14487     14486     14488     14487     14486     14512     14488     14486     14512
     14488     14489     14490     14488     14489     14491     14488     14489     14492
     14488     14493     14494     14488     14493     14495     14488     14493     14496
     14489     14488     14493     14490     14489     14491     14490     14489     14492
     14491     14489     14492     14493     14496     14497     14493     14496     14498
     14493     14496     14499     14494     14493     14495     14494     14493     14496
     14495     14493     14496     14496     14499     14500     14496     14499     14501
     14497     14496     14498     14497     14496     14499     14498     14496     14499
     14499     14501     14502     14499     14501     14506     14500     14499     14501
     14501     14502     14503     14501     14502     14504     14501     14502     14505
     14501     14506     14507     14501     14506     14508     14501     14506     14509
     14502     14501     14506     14503     14502     14504     14503     14502     14505
     14504     14502     14505     14506     14509     14510     14506     14509     14511
     14507     14506     14508     14507     14506     14509     14508     14506     14509
     14510     14509     14511     14512     14514     14515     14512     14514     14516
     14512     14514     14517     14512     14518     14519     14512     14518     14520
     14512     14518     14521     14513     14512     14514     14513     14512     14518
     14514     14512     14518     14515     14514     14516     14515     14514     14517
     14516     14514     14517     14518     14521     14522     14518     14521     14523
     14518     14521     14524     14519     14518     14520     14519     14518     14521
     14520     14518     14521     14521     14524     14525     14521     14524     14526
     14521     14524     14527     14522     14521     14523     14522     14521     14524
     14523     14521     14524     14524     14527     14528     14524     14527     14529
     14524     14527     14533     14525     14524     14526     14525     14524     14527
     14526     14524     14527     14527     14529     14530     14527     14529     14531
     14527     14529     14532     14527     14533     14534     14527     14533     14535
     14527     14533     14536     14528     14527     14529     14528     14527     14533
     14529     14527     14533     14530     14529     14531     14530     14529     14532
     14531     14529     14532     14534     14533     14535     14534     14533     14536
     14535     14533     14536     14537     14538     14539     14537     14538     14540
     14537     14538     14553     14537     14541     14542     14537     14541     14543
     14537     14541     14544     14537     14545     14546     14537     14545     14547
     14537     14545     14548     14537     14549     14550     14537     14549     14551
     14537     14549     14552     14538     14537     14541     14538     14537     14545
     14538     14537     14549     14538     14553     14554     14538     14553     14555
     14538     14553     14559     14539     14538     14540     14539     14538     14553
     14540     14538     14553     14541     14537     14545     14541     14537     14549
     14542     14541     14543     14542     14541     14544     14543     14541     14544
     14545     14537     14549     14546     14545     14547     14546     14545     14548
     14547     14545     14548     14550     14549     14551     14550     14549     14552
     14551     14549     14552     14553     14559     14556     14554     14553     14555
     14554     14553     14559     14555     14553     14559     14556     14560     14561
     14557     14556     14558     14557     14556     14559     14557     14556     14560
     14558     14556     14559     14558     14556     14560     14559     14556     14560
     14560     14561     14562     14560     14561     14563     14560     14561     14564
     14561     14564     14565     14561     14564     14566     14561     14564     14572
     14562     14561     14563     14562     14561     14564     14563     14561     14564
     14564     14566     14567     14564     14572     14573     14564     14572     14574
     14564     14572     14575     14565     14564     14566     14565     14564     14572
     14566     14564     14572     14566     14567     14568     14566     14567     14569
     14567     14569     14570     14567     14569     14571     14567     14569     14581
     14568     14567     14569     14569     14581     14582     14569     14581     14583
     14569     14581     14584     14570     14569     14571     14570     14569     14581
     14571     14569     14581     14572     14575     14576     14573     14572     14574
     14573     14572     14575     14574     14572     14575     14575     14576     14577
     14575     14576     14578     14576     14578     14579     14576     14578     14580
     14576     14578     14628     14577     14576     14578     14578     14628     14629
     14578     14628     14630     14578     14628     14631     14579     14578     14580
     14579     14578     14628     14580     14578     14628     14581     14584     14585
     14581     14584     14586     14581     14584     14587     14582     14581     14583
     14582     14581     14584     14583     14581     14584     14584     14587     14588
     14584     14587     14589     14584     14587     14590     14585     14584     14586
     14585     14584     14587     14586     14584     14587     14587     14590     14591
     14587     14590     14592     14587     14590     14593     14588     14587     14589
     14588     14587     14590     14589     14587     14590     14590     14593     14594
     14590     14593     14595     14590     14593     14596     14591     14590     14592
     14591     14590     14593     14592     14590     14593     14593     14596     14597
     14593     14596     14598     14593     14596     14599     14594     14593     14595
     14594     14593     14596     14595     14593     14596     14596     14599     14600
     14596     14599     14601     14597     14596     14598     14597     14596     14599
     14598     14596     14599     14599     14601     14602     14599     14601     14603
     14600     14599     14601     14601     14603     14604     14601     14603     14605
     14601     14603     14606     14602     14601     14603     14603     14606     14607
     14603     14606     14608     14603     14606     14609     14604     14603     14605
     14604     14603     14606     14605     14603     14606     14606     14609     14610
     14606     14609     14611     14606     14609     14612     14607     14606     14608
     14607     14606     14609     14608     14606     14609     14609     14612     14613
     14609     14612     14614     14609     14612     14615     14610     14609     14611
     14610     14609     14612     14611     14609     14612     14612     14615     14616
     14612     14615     14617     14612     14615     14618     14613     14612     14614
     14613     14612     14615     14614     14612     14615     14615     14618     14619
     14615     14618     14620     14615     14618     14621     14616     14615     14617
     14616     14615     14618     14617     14615     14618     14618     14621     14622
     14618     14621     14623     14618     14621     14624     14619     14618     14620
     14619     14618     14621     14620     14618     14621     14621     14624     14625
     14621     14624     14626     14621     14624     14627     14622     14621     14623
     14622     14621     14624     14623     14621     14624     14625     14624     14626
     14625     14624     14627     14626     14624     14627     14628     14631     14632
     14628     14631     14633     14628     14631     14634     14629     14628     14630
     14629     14628     14631     14630     14628     14631     14631     14634     14635
     14631     14634     14636     14631     14634     14637     14632     14631     14633
     14632     14631     14634     14633     14631     14634     14634     14637     14638
     14634     14637     14639     14634     14637     14640     14635     14634     14636
     14635     14634     14637     14636     14634     14637     14637     14640     14641
     14637     14640     14642     14637     14640     14643     14638     14637     14639
     14638     14637     14640     14639     14637     14640     14640     14643     14644
     14640     14643     14645     14640     14643     14646     14641     14640     14642
     14641     14640     14643     14642     14640     14643     14643     14646     14647
     14643     14646     14648     14643     14646     14649     14644     14643     14645
     14644     14643     14646     14645     14643     14646     14646     14649     14650
     14646     14649     14651     14646     14649     14652     14647     14646     14648
     14647     14646     14649     14648     14646     14649     14649     14652     14653
     14649     14652     14654     14649     14652     14655     14650     14649     14651
     14650     14649     14652     14651     14649     14652     14652     14655     14656
     14652     14655     14657     14652     14655     14658     14653     14652     14654
     14653     14652     14655     14654     14652     14655     14655     14658     14659
     14655     14658     14660     14655     14658     14661     14656     14655     14657
     14656     14655     14658     14657     14655     14658     14658     14661     14662
     14658     14661     14663     14658     14661     14664     14659     14658     14660
     14659     14658     14661     14660     14658     14661     14661     14664     14665
     14661     14664     14666     14661     14664     14667     14662     14661     14663
     14662     14661     14664     14663     14661     14664     14664     14667     14668
     14664     14667     14669     14664     14667     14670     14665     14664     14666
     14665     14664     14667     14666     14664     14667     14668     14667     14669
     14668     14667     14670     14669     14667     14670     14671     14675     14676
     14671     14675     14677     14671     14675     14680     14672     14671     14673
     14672     14671     14674     14672     14671     14675     14673     14671     14674
     14673     14671     14675     14674     14671     14675     14675     14677     14678
     14675     14677     14679     14675     14680     14681     14675     14680     14682
     14675     14680     14686     14676     14675     14677     14676     14675     14680
     14677     14675     14680     14678     14677     14679     14680     14686     14683
     14681     14680     14682     14681     14680     14686     14682     14680     14686
     14683     14687     14688     14684     14683     14685     14684     14683     14686
     14684     14683     14687     14685     14683     14686     14685     14683     14687
     14686     14683     14687     14687     14688     14689     14687     14688     14690
     14687     14688     14691     14688     14691     14692     14688     14691     14693
     14688     14691     14699     14689     14688     14690     14689     14688     14691
     14690     14688     14691     14691     14693     14694     14691     14699     14700
     14691     14699     14701     14691     14699     14702     14692     14691     14693
     14692     14691     14699     14693     14691     14699     14693     14694     14695
     14693     14694     14696     14694     14696     14697     14694     14696     14698
     14694     14696     14708     14695     14694     14696     14696     14708     14709
     14696     14708     14710     14696     14708     14711     14697     14696     14698
     14697     14696     14708     14698     14696     14708     14699     14702     14703
     14700     14699     14701     14700     14699     14702     14701     14699     14702
     14702     14703     14704     14702     14703     14705     14703     14705     14706
     14703     14705     14707     14703     14705     14755     14704     14703     14705
     14705     14755     14756     14705     14755     14757     14705     14755     14758
     14706     14705     14707     14706     14705     14755     14707     14705     14755
     14708     14711     14712     14708     14711     14713     14708     14711     14714
     14709     14708     14710     14709     14708     14711     14710     14708     14711
     14711     14714     14715     14711     14714     14716     14712     14711     14713
     14712     14711     14714     14713     14711     14714     14714     14716     14717
     14714     14716     14718     14715     14714     14716     14716     14718     14719
     14716     14718     14720     14716     14718     14721     14717     14716     14718
     14718     14721     14722     14718     14721     14723     14719     14718     14720
     14719     14718     14721     14720     14718     14721     14721     14723     14724
     14721     14723     14725     14722     14721     14723     14723     14725     14726
     14723     14725     14727     14723     14725     14728     14724     14723     14725
     14725     14728     14729     14725     14728     14730     14726     14725     14727
     14726     14725     14728     14727     14725     14728     14728     14730     14731
     14728     14730     14732     14729     14728     14730     14730     14732     14733
     14730     14732     14734     14730     14732     14735     14731     14730     14732
     14732     14735     14736     14732     14735     14737     14733     14732     14734
     14733     14732     14735     14734     14732     14735     14735     14737     14738
     14735     14737     14739     14736     14735     14737     14737     14739     14740
     14737     14739     14741     14737     14739     14742     14738     14737     14739
     14739     14742     14743     14739     14742     14744     14739     14742     14745
     14740     14739     14741     14740     14739     14742     14741     14739     14742
     14742     14745     14746     14742     14745     14747     14742     14745     14748
     14743     14742     14744     14743     14742     14745     14744     14742     14745
     14745     14748     14749     14745     14748     14750     14745     14748     14751
     14746     14745     14747     14746     14745     14748     14747     14745     14748
     14748     14751     14752     14748     14751     14753     14748     14751     14754
     14749     14748     14750     14749     14748     14751     14750     14748     14751
     14752     14751     14753     14752     14751     14754     14753     14751     14754
     14755     14758     14759     14755     14758     14760     14755     14758     14761
     14756     14755     14757     14756     14755     14758     14757     14755     14758
     14758     14761     14762     14758     14761     14763     14758     14761     14764
     14759     14758     14760     14759     14758     14761     14760     14758     14761
     14761     14764     14765     14761     14764     14766     14761     14764     14767
     14762     14761     14763     14762     14761     14764     14763     14761     14764
     14764     14767     14768     14764     14767     14769     14764     14767     14770
     14765     14764     14766     14765     14764     14767     14766     14764     14767
     14767     14770     14771     14767     14770     14772     14767     14770     14773
     14768     14767     14769     14768     14767     14770     14769     14767     14770
     14770     14773     14774     14770     14773     14775     14770     14773     14776
     14771     14770     14772     14771     14770     14773     14772     14770     14773
     14773     14776     14777     14773     14776     14778     14773     14776     14779
     14774     14773     14775     14774     14773     14776     14775     14773     14776
     14776     14779     14780     14776     14779     14781     14776     14779     14782
     14777     14776     14778     14777     14776     14779     14778     14776     14779
     14779     14782     14783     14779     14782     14784     14779     14782     14785
     14780     14779     14781     14780     14779     14782     14781     14779     14782
     14782     14785     14786     14782     14785     14787     14782     14785     14788
     14783     14782     14784     14783     14782     14785     14784     14782     14785
     14785     14788     14789     14785     14788     14790     14785     14788     14791
     14786     14785     14787     14786     14785     14788     14787     14785     14788
     14788     14791     14792     14788     14791     14793     14788     14791     14794
     14789     14788     14790     14789     14788     14791     14790     14788     14791
     14791     14794     14795     14791     14794     14796     14791     14794     14797
     14792     14791     14793     14792     14791     14794     14793     14791     14794
     14794     14797     14798     14794     14797     14799     14794     14797     14800
     14795     14794     14796     14795     14794     14797     14796     14794     14797
     14797     14800     14801     14797     14800     14802     14797     14800     14803
     14798     14797     14799     14798     14797     14800     14799     14797     14800
     14801     14800     14802     14801     14800     14803     14802     14800     14803
     14804     14805     14806     14804     14805     14807     14804     14805     14808
     14804     14809     14810     14804     14809     14811     14804     14809     14812
     14804     14813     14814     14804     14813     14815     14804     14813     14816
     14804     14817     14818     14804     14817     14819     14804     14817     14820
     14805     14804     14809     14805     14804     14813     14805     14804     14817
     14806     14805     14807     14806     14805     14808     14807     14805     14808
     14809     14804     14813     14809     14804     14817     14810     14809     14811
     14810     14809     14812     14811     14809     14812     14813     14804     14817
     14814     14813     14815     14814     14813     14816     14815     14813     14816
     14817     14820     14821     14817     14820     14822     14817     14820     14827
     14818     14817     14819     14818     14817     14820     14819     14817     14820
     14820     14827     14823     14821     14820     14822     14821     14820     14827
     14822     14820     14827     14823     14826     14828     14824     14823     14825
     14824     14823     14826     14824     14823     14827     14825     14823     14826
     14825     14823     14827     14826     14823     14827     14826     14828     14829
     14826     14828     14830     14826     14828     14833     14828     14833     14831
     14828     14833     14834     14828     14833     14835     14829     14828     14830
     14829     14828     14833     14830     14828     14833     14831     14833     14834
     14831     14833     14835     14831     14883     14884     14831     14883     14885
     14832     14831     14833     14832     14831     14883     14833     14831     14883
     14833     14835     14836     14833     14835     14837     14833     14835     14839
     14834     14833     14835     14835     14837     14838     14835     14839     14840
     14835     14839     14841     14836     14835     14837     14836     14835     14839
     14837     14835     14839     14839     14841     14842     14839     14841     14843
     14840     14839     14841     14841     14843     14844     14841     14843     14845
     14841     14843     14846     14842     14841     14843     14843     14846     14847
     14843     14846     14848     14843     14846     14849     14844     14843     14845
     14844     14843     14846     14845     14843     14846     14846     14849     14850
     14846     14849     14851     14846     14849     14852     14847     14846     14848
     14847     14846     14849     14848     14846     14849     14849     14852     14853
     14849     14852     14854     14849     14852     14855     14850     14849     14851
     14850     14849     14852     14851     14849     14852     14852     14855     14856
     14852     14855     14857     14852     14855     14858     14853     14852     14854
     14853     14852     14855     14854     14852     14855     14855     14858     14859
     14855     14858     14860     14855     14858     14861     14856     14855     14857
     14856     14855     14858     14857     14855     14858     14858     14861     14862
     14858     14861     14863     14858     14861     14864     14859     14858     14860
     14859     14858     14861     14860     14858     14861     14861     14864     14865
     14861     14864     14866     14861     14864     14867     14862     14861     14863
     14862     14861     14864     14863     14861     14864     14864     14867     14868
     14864     14867     14869     14864     14867     14870     14865     14864     14866
     14865     14864     14867     14866     14864     14867     14867     14870     14871
     14867     14870     14872     14867     14870     14873     14868     14867     14869
     14868     14867     14870     14869     14867     14870     14870     14873     14874
     14870     14873     14875     14870     14873     14876     14871     14870     14872
     14871     14870     14873     14872     14870     14873     14873     14876     14877
     14873     14876     14878     14873     14876     14879     14874     14873     14875
     14874     14873     14876     14875     14873     14876     14876     14879     14880
     14876     14879     14881     14876     14879     14882     14877     14876     14878
     14877     14876     14879     14878     14876     14879     14880     14879     14881
     14880     14879     14882     14881     14879     14882     14883     14885     14886
     14883     14885     14887     14883     14885     14888     14884     14883     14885
     14885     14888     14889     14885     14888     14890     14885     14888     14891
     14886     14885     14887     14886     14885     14888     14887     14885     14888
     14888     14891     14892     14888     14891     14893     14888     14891     14894
     14889     14888     14890     14889     14888     14891     14890     14888     14891
     14891     14894     14895     14891     14894     14896     14891     14894     14897
     14892     14891     14893     14892     14891     14894     14893     14891     14894
     14894     14897     14898     14894     14897     14899     14894     14897     14900
     14895     14894     14896     14895     14894     14897     14896     14894     14897
     14897     14900     14901     14897     14900     14902     14897     14900     14903
     14898     14897     14899     14898     14897     14900     14899     14897     14900
     14900     14903     14904     14900     14903     14905     14900     14903     14906
     14901     14900     14902     14901     14900     14903     14902     14900     14903
     14903     14906     14907     14903     14906     14908     14904     14903     14905
     14904     14903     14906     14905     14903     14906     14906     14908     14909
     14906     14908     14910     14907     14906     14908     14908     14910     14911
     14908     14910     14912     14908     14910     14913     14909     14908     14910
     14910     14913     14914     14910     14913     14915     14910     14913     14916
     14911     14910     14912     14911     14910     14913     14912     14910     14913
     14913     14916     14917     14913     14916     14918     14913     14916     14919
     14914     14913     14915     14914     14913     14916     14915     14913     14916
     14916     14919     14920     14916     14919     14921     14916     14919     14922
     14917     14916     14918     14917     14916     14919     14918     14916     14919
     14919     14922     14923     14919     14922     14924     14919     14922     14925
     14920     14919     14921     14920     14919     14922     14921     14919     14922
     14922     14925     14926     14922     14925     14927     14922     14925     14928
     14923     14922     14924     14923     14922     14925     14924     14922     14925
     14925     14928     14929     14925     14928     14930     14925     14928     14931
     14926     14925     14927     14926     14925     14928     14927     14925     14928
     14928     14931     14932     14928     14931     14933     14928     14931     14934
     14929     14928     14930     14929     14928     14931     14930     14928     14931
     14932     14931     14933     14932     14931     14934     14933     14931     14934
     14935     14936     14937     14935     14936     14938     14935     14936     14939
     14935     14940     14941     14935     14940     14942     14935     14940     14943
     14935     14944     14945     14935     14944     14946     14935     14944     14947
     14935     14948     14949     14935     14948     14950     14935     14948     14951
     14936     14935     14940     14936     14935     14944     14936     14935     14948
     14937     14936     14938     14937     14936     14939     14938     14936     14939
     14940     14935     14944     14940     14935     14948     14941     14940     14942
     14941     14940     14943     14942     14940     14943     14944     14935     14948
     14945     14944     14946     14945     14944     14947     14946     14944     14947
     14948     14951     14952     14948     14951     14953     14948     14951     14957
     14949     14948     14950     14949     14948     14951     14950     14948     14951
     14951     14957     14954     14952     14951     14953     14952     14951     14957
     14953     14951     14957     14954     14958     14959     14955     14954     14956
     14955     14954     14957     14955     14954     14958     14956     14954     14957
     14956     14954     14958     14957     14954     14958     14958     14959     14960
     14958     14959     14961     14958     14959     14962     14959     14962     14963
     14959     14962     14964     14959     14962     14970     14960     14959     14961
     14960     14959     14962     14961     14959     14962     14962     14964     14965
     14962     14970     14971     14962     14970     14972     14962     14970     14973
     14963     14962     14964     14963     14962     14970     14964     14962     14970
     14964     14965     14966     14964     14965     14967     14965     14967     14968
     14965     14967     14969     14965     14967     14979     14966     14965     14967
     14967     14979     14980     14967     14979     14981     14967     14979     14982
     14968     14967     14969     14968     14967     14979     14969     14967     14979
     14970     14973     14974     14971     14970     14972     14971     14970     14973
     14972     14970     14973     14973     14974     14975     14973     14974     14976
     14974     14976     14977     14974     14976     14978     14974     14976     15024
     14975     14974     14976     14976     15024     15025     14976     15024     15026
     14976     15024     15027     14977     14976     14978     14977     14976     15024
     14978     14976     15024     14979     14982     14983     14979     14982     14984
     14979     14982     14985     14980     14979     14981     14980     14979     14982
     14981     14979     14982     14982     14985     14986     14982     14985     14987
     14982     14985     14988     14983     14982     14984     14983     14982     14985
     14984     14982     14985     14985     14988     14989     14985     14988     14990
     14985     14988     14991     14986     14985     14987     14986     14985     14988
     14987     14985     14988     14988     14991     14992     14988     14991     14993
     14988     14991     14994     14989     14988     14990     14989     14988     14991
     14990     14988     14991     14991     14994     14995     14991     14994     14996
     14991     14994     14997     14992     14991     14993     14992     14991     14994
     14993     14991     14994     14994     14997     14998     14994     14997     14999
     14995     14994     14996     14995     14994     14997     14996     14994     14997
     14997     14999     15000     14997     14999     15001     14998     14997     14999
     14999     15001     15002     14999     15001     15003     14999     15001     15004
     15000     14999     15001     15001     15004     15005     15001     15004     15006
     15002     15001     15003     15002     15001     15004     15003     15001     15004
     15004     15006     15007     15004     15006     15008     15005     15004     15006
     15006     15008     15009     15006     15008     15010     15006     15008     15011
     15007     15006     15008     15008     15011     15012     15008     15011     15013
     15008     15011     15014     15009     15008     15010     15009     15008     15011
     15010     15008     15011     15011     15014     15015     15011     15014     15016
     15011     15014     15017     15012     15011     15013     15012     15011     15014
     15013     15011     15014     15014     15017     15018     15014     15017     15019
     15014     15017     15020     15015     15014     15016     15015     15014     15017
     15016     15014     15017     15017     15020     15021     15017     15020     15022
     15017     15020     15023     15018     15017     15019     15018     15017     15020
     15019     15017     15020     15021     15020     15022     15021     15020     15023
     15022     15020     15023     15024     15027     15028     15024     15027     15029
     15024     15027     15030     15025     15024     15026     15025     15024     15027
     15026     15024     15027     15027     15030     15031     15027     15030     15032
     15027     15030     15033     15028     15027     15029     15028     15027     15030
     15029     15027     15030     15030     15033     15034     15030     15033     15035
     15030     15033     15036     15031     15030     15032     15031     15030     15033
     15032     15030     15033     15033     15036     15037     15033     15036     15038
     15033     15036     15039     15034     15033     15035     15034     15033     15036
     15035     15033     15036     15036     15039     15040     15036     15039     15041
     15036     15039     15042     15037     15036     15038     15037     15036     15039
     15038     15036     15039     15039     15042     15043     15039     15042     15044
     15039     15042     15045     15040     15039     15041     15040     15039     15042
     15041     15039     15042     15042     15045     15046     15042     15045     15047
     15042     15045     15048     15043     15042     15044     15043     15042     15045
     15044     15042     15045     15045     15048     15049     15045     15048     15050
     15045     15048     15051     15046     15045     15047     15046     15045     15048
     15047     15045     15048     15048     15051     15052     15048     15051     15053
     15048     15051     15054     15049     15048     15050     15049     15048     15051
     15050     15048     15051     15051     15054     15055     15051     15054     15056
     15051     15054     15057     15052     15051     15053     15052     15051     15054
     15053     15051     15054     15054     15057     15058     15054     15057     15059
     15054     15057     15060     15055     15054     15056     15055     15054     15057
     15056     15054     15057     15057     15060     15061     15057     15060     15062
     15057     15060     15063     15058     15057     15059     15058     15057     15060
     15059     15057     15060     15060     15063     15064     15060     15063     15065
     15060     15063     15066     15061     15060     15062     15061     15060     15063
     15062     15060     15063     15063     15066     15067     15063     15066     15068
     15063     15066     15069     15064     15063     15065     15064     15063     15066
     15065     15063     15066     15066     15069     15070     15066     15069     15071
     15066     15069     15072     15067     15066     15068     15067     15066     15069
     15068     15066     15069     15070     15069     15071     15070     15069     15072
     15071     15069     15072     15073     15077     15078     15073     15077     15079
     15073     15077     15080     15074     15073     15075     15074     15073     15076
     15074     15073     15077     15075     15073     15076     15075     15073     15077
     15076     15073     15077     15077     15080     15081     15077     15080     15082
     15077     15080     15086     15078     15077     15079     15078     15077     15080
     15079     15077     15080     15080     15086     15083     15081     15080     15082
     15081     15080     15086     15082     15080     15086     15083     15087     15088
     15084     15083     15085     15084     15083     15086     15084     15083     15087
     15085     15083     15086     15085     15083     15087     15086     15083     15087
     15087     15088     15089     15087     15088     15090     15087     15088     15091
     15088     15091     15092     15088     15091     15093     15088     15091     15099
     15089     15088     15090     15089     15088     15091     15090     15088     15091
     15091     15093     15094     15091     15099     15100     15091     15099     15101
     15091     15099     15102     15092     15091     15093     15092     15091     15099
     15093     15091     15099     15093     15094     15095     15093     15094     15096
     15094     15096     15097     15094     15096     15098     15094     15096     15108
     15095     15094     15096     15096     15108     15109     15096     15108     15110
     15096     15108     15111     15097     15096     15098     15097     15096     15108
     15098     15096     15108     15099     15102     15103     15100     15099     15101
     15100     15099     15102     15101     15099     15102     15102     15103     15104
     15102     15103     15105     15103     15105     15106     15103     15105     15107
     15103     15105     15155     15104     15103     15105     15105     15155     15156
     15105     15155     15157     15105     15155     15158     15106     15105     15107
     15106     15105     15155     15107     15105     15155     15108     15111     15112
     15108     15111     15113     15108     15111     15114     15109     15108     15110
     15109     15108     15111     15110     15108     15111     15111     15114     15115
     15111     15114     15116     15112     15111     15113     15112     15111     15114
     15113     15111     15114     15114     15116     15117     15114     15116     15118
     15115     15114     15116     15116     15118     15119     15116     15118     15120
     15116     15118     15121     15117     15116     15118     15118     15121     15122
     15118     15121     15123     15119     15118     15120     15119     15118     15121
     15120     15118     15121     15121     15123     15124     15121     15123     15125
     15122     15121     15123     15123     15125     15126     15123     15125     15127
     15123     15125     15128     15124     15123     15125     15125     15128     15129
     15125     15128     15130     15126     15125     15127     15126     15125     15128
     15127     15125     15128     15128     15130     15131     15128     15130     15132
     15129     15128     15130     15130     15132     15133     15130     15132     15134
     15130     15132     15135     15131     15130     15132     15132     15135     15136
     15132     15135     15137     15133     15132     15134     15133     15132     15135
     15134     15132     15135     15135     15137     15138     15135     15137     15139
     15136     15135     15137     15137     15139     15140     15137     15139     15141
     15137     15139     15142     15138     15137     15139     15139     15142     15143
     15139     15142     15144     15139     15142     15145     15140     15139     15141
     15140     15139     15142     15141     15139     15142     15142     15145     15146
     15142     15145     15147     15142     15145     15148     15143     15142     15144
     15143     15142     15145     15144     15142     15145     15145     15148     15149
     15145     15148     15150     15145     15148     15151     15146     15145     15147
     15146     15145     15148     15147     15145     15148     15148     15151     15152
     15148     15151     15153     15148     15151     15154     15149     15148     15150
     15149     15148     15151     15150     15148     15151     15152     15151     15153
     15152     15151     15154     15153     15151     15154     15155     15158     15159
     15155     15158     15160     15155     15158     15161     15156     15155     15157
     15156     15155     15158     15157     15155     15158     15158     15161     15162
     15158     15161     15163     15158     15161     15164     15159     15158     15160
     15159     15158     15161     15160     15158     15161     15161     15164     15165
     15161     15164     15166     15161     15164     15167     15162     15161     15163
     15162     15161     15164     15163     15161     15164     15164     15167     15168
     15164     15167     15169     15164     15167     15170     15165     15164     15166
     15165     15164     15167     15166     15164     15167     15167     15170     15171
     15167     15170     15172     15167     15170     15173     15168     15167     15169
     15168     15167     15170     15169     15167     15170     15170     15173     15174
     15170     15173     15175     15170     15173     15176     15171     15170     15172
     15171     15170     15173     15172     15170     15173     15173     15176     15177
     15173     15176     15178     15173     15176     15179     15174     15173     15175
     15174     15173     15176     15175     15173     15176     15176     15179     15180
     15176     15179     15181     15176     15179     15182     15177     15176     15178
     15177     15176     15179     15178     15176     15179     15179     15182     15183
     15179     15182     15184     15179     15182     15185     15180     15179     15181
     15180     15179     15182     15181     15179     15182     15182     15185     15186
     15182     15185     15187     15182     15185     15188     15183     15182     15184
     15183     15182     15185     15184     15182     15185     15185     15188     15189
     15185     15188     15190     15185     15188     15191     15186     15185     15187
     15186     15185     15188     15187     15185     15188     15188     15191     15192
     15188     15191     15193     15188     15191     15194     15189     15188     15190
     15189     15188     15191     15190     15188     15191     15191     15194     15195
     15191     15194     15196     15191     15194     15197     15192     15191     15193
     15192     15191     15194     15193     15191     15194     15194     15197     15198
     15194     15197     15199     15194     15197     15200     15195     15194     15196
     15195     15194     15197     15196     15194     15197     15197     15200     15201
     15197     15200     15202     15197     15200     15203     15198     15197     15199
     15198     15197     15200     15199     15197     15200     15201     15200     15202
     15201     15200     15203     15202     15200     15203     15204     15206     15207
     15204     15208     15209     15204     15208     15210     15204     15208     15211
     15204     15250     15247     15204     15250     15251     15204     15250     15252
     15205     15204     15206     15205     15204     15208     15205     15204     15250
     15206     15204     15208     15206     15204     15250     15208     15204     15250
     15208     15211     15212     15208     15211     15242     15209     15208     15210
     15209     15208     15211     15210     15208     15211     15211     15212     15213
     15211     15212     15214     15211     15242     15240     15211     15242     15243
     15211     15242     15247     15212     15211     15242     15212     15214     15215
     15212     15214     15216     15212     15214     15217     15213     15212     15214
     15214     15217     15218     15214     15217     15219     15214     15217     15240
     15215     15214     15216     15215     15214     15217     15216     15214     15217
     15217     15219     15220     15217     15219     15221     15217     15219     15229
     15217     15240     15237     15217     15240     15241     15217     15240     15242
     15218     15217     15219     15218     15217     15240     15219     15217     15240
     15219     15221     15222     15219     15221     15223     15219     15221     15224
     15219     15229     15227     15219     15229     15230     15219     15229     15234
     15220     15219     15221     15220     15219     15229     15221     15219     15229
     15221     15224     15225     15221     15224     15226     15221     15224     15227
     15222     15221     15223     15222     15221     15224     15223     15221     15224
     15224     15227     15228     15224     15227     15229     15224     15227     15253
     15225     15224     15226     15225     15224     15227     15226     15224     15227
     15227     15229     15230     15227     15229     15234     15227     15253     15254
     15227     15253     15255     15227     15253     15259     15228     15227     15229
     15228     15227     15253     15229     15227     15253     15229     15230     15231
     15229     15230     15232     15229     15230     15233     15229     15234     15235
     15229     15234     15236     15229     15234     15237     15230     15229     15234
     15231     15230     15232     15231     15230     15233     15232     15230     15233
     15234     15237     15238     15234     15237     15239     15234     15237     15240
     15235     15234     15236     15235     15234     15237     15236     15234     15237
     15237     15240     15241     15237     15240     15242     15238     15237     15239
     15238     15237     15240     15239     15237     15240     15240     15242     15243
     15240     15242     15247     15241     15240     15242     15242     15243     15244
     15242     15243     15245     15242     15243     15246     15242     15247     15248
     15242     15247     15249     15242     15247     15250     15243     15242     15247
     15244     15243     15245     15244     15243     15246     15245     15243     15246
     15247     15250     15251     15247     15250     15252     15248     15247     15249
     15248     15247     15250     15249     15247     15250     15251     15250     15252
     15253     15255     15256     15253     15255     15257     15253     15255     15258
     15253     15259     15260     15253     15259     15261     15253     15259     15262
     15254     15253     15255     15254     15253     15259     15255     15253     15259
     15256     15255     15257     15256     15255     15258     15257     15255     15258
     15259     15262     15263     15259     15262     15264     15259     15262     15265
     15260     15259     15261     15260     15259     15262     15261     15259     15262
     15262     15265     15266     15262     15265     15267     15262     15265     15268
     15263     15262     15264     15263     15262     15265     15264     15262     15265
     15265     15268     15269     15265     15268     15270     15265     15268     15274
     15266     15265     15267     15266     15265     15268     15267     15265     15268
     15268     15270     15271     15268     15270     15272     15268     15270     15273
     15268     15274     15275     15268     15274     15276     15268     15274     15277
     15269     15268     15270     15269     15268     15274     15270     15268     15274
     15271     15270     15272     15271     15270     15273     15272     15270     15273
     15275     15274     15276     15275     15274     15277     15276     15274     15277
     15278     15282     15283     15278     15282     15284     15278     15282     15287
     15279     15278     15280     15279     15278     15281     15279     15278     15282
     15280     15278     15281     15280     15278     15282     15281     15278     15282
     15282     15284     15285     15282     15284     15286     15282     15287     15288
     15282     15287     15289     15282     15287     15293     15283     15282     15284
     15283     15282     15287     15284     15282     15287     15285     15284     15286
     15287     15293     15290     15288     15287     15289     15288     15287     15293
     15289     15287     15293     15290     15294     15295     15291     15290     15292
     15291     15290     15293     15291     15290     15294     15292     15290     15293
     15292     15290     15294     15293     15290     15294     15294     15295     15296
     15294     15295     15297     15294     15295     15298     15295     15298     15299
     15295     15298     15300     15295     15298     15306     15296     15295     15297
     15296     15295     15298     15297     15295     15298     15298     15300     15301
     15298     15306     15307     15298     15306     15308     15298     15306     15309
     15299     15298     15300     15299     15298     15306     15300     15298     15306
     15300     15301     15302     15300     15301     15303     15301     15303     15304
     15301     15303     15305     15301     15303     15315     15302     15301     15303
     15303     15315     15316     15303     15315     15317     15303     15315     15318
     15304     15303     15305     15304     15303     15315     15305     15303     15315
     15306     15309     15310     15307     15306     15308     15307     15306     15309
     15308     15306     15309     15309     15310     15311     15309     15310     15312
     15310     15312     15313     15310     15312     15314     15310     15312     15362
     15311     15310     15312     15312     15362     15363     15312     15362     15364
     15312     15362     15365     15313     15312     15314     15313     15312     15362
     15314     15312     15362     15315     15318     15319     15315     15318     15320
     15315     15318     15321     15316     15315     15317     15316     15315     15318
     15317     15315     15318     15318     15321     15322     15318     15321     15323
     15319     15318     15320     15319     15318     15321     15320     15318     15321
     15321     15323     15324     15321     15323     15325     15322     15321     15323
     15323     15325     15326     15323     15325     15327     15323     15325     15328
     15324     15323     15325     15325     15328     15329     15325     15328     15330
     15326     15325     15327     15326     15325     15328     15327     15325     15328
     15328     15330     15331     15328     15330     15332     15329     15328     15330
     15330     15332     15333     15330     15332     15334     15330     15332     15335
     15331     15330     15332     15332     15335     15336     15332     15335     15337
     15333     15332     15334     15333     15332     15335     15334     15332     15335
     15335     15337     15338     15335     15337     15339     15336     15335     15337
     15337     15339     15340     15337     15339     15341     15337     15339     15342
     15338     15337     15339     15339     15342     15343     15339     15342     15344
     15340     15339     15341     15340     15339     15342     15341     15339     15342
     15342     15344     15345     15342     15344     15346     15343     15342     15344
     15344     15346     15347     15344     15346     15348     15344     15346     15349
     15345     15344     15346     15346     15349     15350     15346     15349     15351
     15346     15349     15352     15347     15346     15348     15347     15346     15349
     15348     15346     15349     15349     15352     15353     15349     15352     15354
     15349     15352     15355     15350     15349     15351     15350     15349     15352
     15351     15349     15352     15352     15355     15356     15352     15355     15357
     15352     15355     15358     15353     15352     15354     15353     15352     15355
     15354     15352     15355     15355     15358     15359     15355     15358     15360
     15355     15358     15361     15356     15355     15357     15356     15355     15358
     15357     15355     15358     15359     15358     15360     15359     15358     15361
     15360     15358     15361     15362     15365     15366     15362     15365     15367
     15362     15365     15368     15363     15362     15364     15363     15362     15365
     15364     15362     15365     15365     15368     15369     15365     15368     15370
     15365     15368     15371     15366     15365     15367     15366     15365     15368
     15367     15365     15368     15368     15371     15372     15368     15371     15373
     15368     15371     15374     15369     15368     15370     15369     15368     15371
     15370     15368     15371     15371     15374     15375     15371     15374     15376
     15371     15374     15377     15372     15371     15373     15372     15371     15374
     15373     15371     15374     15374     15377     15378     15374     15377     15379
     15374     15377     15380     15375     15374     15376     15375     15374     15377
     15376     15374     15377     15377     15380     15381     15377     15380     15382
     15377     15380     15383     15378     15377     15379     15378     15377     15380
     15379     15377     15380     15380     15383     15384     15380     15383     15385
     15380     15383     15386     15381     15380     15382     15381     15380     15383
     15382     15380     15383     15383     15386     15387     15383     15386     15388
     15383     15386     15389     15384     15383     15385     15384     15383     15386
     15385     15383     15386     15386     15389     15390     15386     15389     15391
     15386     15389     15392     15387     15386     15388     15387     15386     15389
     15388     15386     15389     15389     15392     15393     15389     15392     15394
     15389     15392     15395     15390     15389     15391     15390     15389     15392
     15391     15389     15392     15392     15395     15396     15392     15395     15397
     15392     15395     15398     15393     15392     15394     15393     15392     15395
     15394     15392     15395     15395     15398     15399     15395     15398     15400
     15395     15398     15401     15396     15395     15397     15396     15395     15398
     15397     15395     15398     15398     15401     15402     15398     15401     15403
     15398     15401     15404     15399     15398     15400     15399     15398     15401
     15400     15398     15401     15401     15404     15405     15401     15404     15406
     15401     15404     15407     15402     15401     15403     15402     15401     15404
     15403     15401     15404     15404     15407     15408     15404     15407     15409
     15404     15407     15410     15405     15404     15406     15405     15404     15407
     15406     15404     15407     15408     15407     15409     15408     15407     15410
     15409     15407     15410     15411     15415     15416     15411     15415     15417
     15411     15415     15418     15412     15411     15413     15412     15411     15414
     15412     15411     15415     15413     15411     15414     15413     15411     15415
     15414     15411     15415     15415     15418     15419     15415     15418     15420
     15415     15418     15424     15416     15415     15417     15416     15415     15418
     15417     15415     15418     15418     15424     15421     15419     15418     15420
     15419     15418     15424     15420     15418     15424     15421     15425     15426
     15422     15421     15423     15422     15421     15424     15422     15421     15425
     15423     15421     15424     15423     15421     15425     15424     15421     15425
     15425     15426     15427     15425     15426     15428     15425     15426     15429
     15426     15429     15430     15426     15429     15431     15426     15429     15437
     15427     15426     15428     15427     15426     15429     15428     15426     15429
     15429     15431     15432     15429     15437     15438     15429     15437     15439
     15429     15437     15440     15430     15429     15431     15430     15429     15437
     15431     15429     15437     15431     15432     15433     15431     15432     15434
     15432     15434     15435     15432     15434     15436     15432     15434     15446
     15433     15432     15434     15434     15446     15447     15434     15446     15448
     15434     15446     15449     15435     15434     15436     15435     15434     15446
     15436     15434     15446     15437     15440     15441     15438     15437     15439
     15438     15437     15440     15439     15437     15440     15440     15441     15442
     15440     15441     15443     15441     15443     15444     15441     15443     15445
     15441     15443     15493     15442     15441     15443     15443     15493     15494
     15443     15493     15495     15443     15493     15496     15444     15443     15445
     15444     15443     15493     15445     15443     15493     15446     15449     15450
     15446     15449     15451     15446     15449     15452     15447     15446     15448
     15447     15446     15449     15448     15446     15449     15449     15452     15453
     15449     15452     15454     15449     15452     15455     15450     15449     15451
     15450     15449     15452     15451     15449     15452     15452     15455     15456
     15452     15455     15457     15452     15455     15458     15453     15452     15454
     15453     15452     15455     15454     15452     15455     15455     15458     15459
     15455     15458     15460     15455     15458     15461     15456     15455     15457
     15456     15455     15458     15457     15455     15458     15458     15461     15462
     15458     15461     15463     15458     15461     15464     15459     15458     15460
     15459     15458     15461     15460     15458     15461     15461     15464     15465
     15461     15464     15466     15462     15461     15463     15462     15461     15464
     15463     15461     15464     15464     15466     15467     15464     15466     15468
     15465     15464     15466     15466     15468     15469     15466     15468     15470
     15466     15468     15471     15467     15466     15468     15468     15471     15472
     15468     15471     15473     15468     15471     15474     15469     15468     15470
     15469     15468     15471     15470     15468     15471     15471     15474     15475
     15471     15474     15476     15471     15474     15477     15472     15471     15473
     15472     15471     15474     15473     15471     15474     15474     15477     15478
     15474     15477     15479     15474     15477     15480     15475     15474     15476
     15475     15474     15477     15476     15474     15477     15477     15480     15481
     15477     15480     15482     15477     15480     15483     15478     15477     15479
     15478     15477     15480     15479     15477     15480     15480     15483     15484
     15480     15483     15485     15480     15483     15486     15481     15480     15482
     15481     15480     15483     15482     15480     15483     15483     15486     15487
     15483     15486     15488     15483     15486     15489     15484     15483     15485
     15484     15483     15486     15485     15483     15486     15486     15489     15490
     15486     15489     15491     15486     15489     15492     15487     15486     15488
     15487     15486     15489     15488     15486     15489     15490     15489     15491
     15490     15489     15492     15491     15489     15492     15493     15496     15497
     15493     15496     15498     15493     15496     15499     15494     15493     15495
     15494     15493     15496     15495     15493     15496     15496     15499     15500
     15496     15499     15501     15496     15499     15502     15497     15496     15498
     15497     15496     15499     15498     15496     15499     15499     15502     15503
     15499     15502     15504     15499     15502     15505     15500     15499     15501
     15500     15499     15502     15501     15499     15502     15502     15505     15506
     15502     15505     15507     15502     15505     15508     15503     15502     15504
     15503     15502     15505     15504     15502     15505     15505     15508     15509
     15505     15508     15510     15505     15508     15511     15506     15505     15507
     15506     15505     15508     15507     15505     15508     15508     15511     15512
     15508     15511     15513     15508     15511     15514     15509     15508     15510
     15509     15508     15511     15510     15508     15511     15511     15514     15515
     15511     15514     15516     15511     15514     15517     15512     15511     15513
     15512     15511     15514     15513     15511     15514     15514     15517     15518
     15514     15517     15519     15514     15517     15520     15515     15514     15516
     15515     15514     15517     15516     15514     15517     15517     15520     15521
     15517     15520     15522     15517     15520     15523     15518     15517     15519
     15518     15517     15520     15519     15517     15520     15520     15523     15524
     15520     15523     15525     15520     15523     15526     15521     15520     15522
     15521     15520     15523     15522     15520     15523     15523     15526     15527
     15523     15526     15528     15523     15526     15529     15524     15523     15525
     15524     15523     15526     15525     15523     15526     15526     15529     15530
     15526     15529     15531     15526     15529     15532     15527     15526     15528
     15527     15526     15529     15528     15526     15529     15529     15532     15533
     15529     15532     15534     15529     15532     15535     15530     15529     15531
     15530     15529     15532     15531     15529     15532     15532     15535     15536
     15532     15535     15537     15532     15535     15538     15533     15532     15534
     15533     15532     15535     15534     15532     15535     15535     15538     15539
     15535     15538     15540     15535     15538     15541     15536     15535     15537
     15536     15535     15538     15537     15535     15538     15539     15538     15540
     15539     15538     15541     15540     15538     15541     15542     15544     15545
     15542     15546     15547     15542     15546     15548     15542     15546     15549
     15542     15588     15585     15542     15588     15589     15542     15588     15590
     15543     15542     15544     15543     15542     15546     15543     15542     15588
     15544     15542     15546     15544     15542     15588     15546     15542     15588
     15546     15549     15550     15546     15549     15580     15547     15546     15548
     15547     15546     15549     15548     15546     15549     15549     15550     15551
     15549     15550     15552     15549     15580     15578     15549     15580     15581
     15549     15580     15585     15550     15549     15580     15550     15552     15553
     15550     15552     15554     15550     15552     15555     15551     15550     15552
     15552     15555     15556     15552     15555     15557     15552     15555     15578
     15553     15552     15554     15553     15552     15555     15554     15552     15555
     15555     15557     15558     15555     15557     15559     15555     15557     15567
     15555     15578     15575     15555     15578     15579     15555     15578     15580
     15556     15555     15557     15556     15555     15578     15557     15555     15578
     15557     15559     15560     15557     15559     15561     15557     15559     15562
     15557     15567     15565     15557     15567     15568     15557     15567     15572
     15558     15557     15559     15558     15557     15567     15559     15557     15567
     15559     15562     15563     15559     15562     15564     15559     15562     15565
     15560     15559     15561     15560     15559     15562     15561     15559     15562
     15562     15565     15566     15562     15565     15567     15562     15565     15591
     15563     15562     15564     15563     15562     15565     15564     15562     15565
     15565     15567     15568     15565     15567     15572     15565     15591     15592
     15565     15591     15593     15565     15591     15597     15566     15565     15567
     15566     15565     15591     15567     15565     15591     15567     15568     15569
     15567     15568     15570     15567     15568     15571     15567     15572     15573
     15567     15572     15574     15567     15572     15575     15568     15567     15572
     15569     15568     15570     15569     15568     15571     15570     15568     15571
     15572     15575     15576     15572     15575     15577     15572     15575     15578
     15573     15572     15574     15573     15572     15575     15574     15572     15575
     15575     15578     15579     15575     15578     15580     15576     15575     15577
     15576     15575     15578     15577     15575     15578     15578     15580     15581
     15578     15580     15585     15579     15578     15580     15580     15581     15582
     15580     15581     15583     15580     15581     15584     15580     15585     15586
     15580     15585     15587     15580     15585     15588     15581     15580     15585
     15582     15581     15583     15582     15581     15584     15583     15581     15584
     15585     15588     15589     15585     15588     15590     15586     15585     15587
     15586     15585     15588     15587     15585     15588     15589     15588     15590
     15591     15593     15594     15591     15593     15595     15591     15593     15596
     15591     15597     15598     15591     15597     15599     15591     15597     15600
     15592     15591     15593     15592     15591     15597     15593     15591     15597
     15594     15593     15595     15594     15593     15596     15595     15593     15596
     15597     15600     15601     15597     15600     15602     15597     15600     15603
     15598     15597     15599     15598     15597     15600     15599     15597     15600
     15600     15603     15604     15600     15603     15605     15600     15603     15606
     15601     15600     15602     15601     15600     15603     15602     15600     15603
     15603     15606     15607     15603     15606     15608     15603     15606     15612
     15604     15603     15605     15604     15603     15606     15605     15603     15606
     15606     15608     15609     15606     15608     15610     15606     15608     15611
     15606     15612     15613     15606     15612     15614     15606     15612     15615
     15607     15606     15608     15607     15606     15612     15608     15606     15612
     15609     15608     15610     15609     15608     15611     15610     15608     15611
     15613     15612     15614     15613     15612     15615     15614     15612     15615
     15616     15618     15619     15616     15620     15621     15616     15620     15622
     15616     15620     15623     15616     15662     15659     15616     15662     15663
     15616     15662     15664     15617     15616     15618     15617     15616     15620
     15617     15616     15662     15618     15616     15620     15618     15616     15662
     15620     15616     15662     15620     15623     15624     15620     15623     15654
     15621     15620     15622     15621     15620     15623     15622     15620     15623
     15623     15624     15625     15623     15624     15626     15623     15654     15652
     15623     15654     15655     15623     15654     15659     15624     15623     15654
     15624     15626     15627     15624     15626     15628     15624     15626     15629
     15625     15624     15626     15626     15629     15630     15626     15629     15631
     15626     15629     15652     15627     15626     15628     15627     15626     15629
     15628     15626     15629     15629     15631     15632     15629     15631     15633
     15629     15631     15641     15629     15652     15649     15629     15652     15653
     15629     15652     15654     15630     15629     15631     15630     15629     15652
     15631     15629     15652     15631     15633     15634     15631     15633     15635
     15631     15633     15636     15631     15641     15639     15631     15641     15642
     15631     15641     15646     15632     15631     15633     15632     15631     15641
     15633     15631     15641     15633     15636     15637     15633     15636     15638
     15633     15636     15639     15634     15633     15635     15634     15633     15636
     15635     15633     15636     15636     15639     15640     15636     15639     15641
     15636     15639     15665     15637     15636     15638     15637     15636     15639
     15638     15636     15639     15639     15641     15642     15639     15641     15646
     15639     15665     15666     15639     15665     15667     15639     15665     15671
     15640     15639     15641     15640     15639     15665     15641     15639     15665
     15641     15642     15643     15641     15642     15644     15641     15642     15645
     15641     15646     15647     15641     15646     15648     15641     15646     15649
     15642     15641     15646     15643     15642     15644     15643     15642     15645
     15644     15642     15645     15646     15649     15650     15646     15649     15651
     15646     15649     15652     15647     15646     15648     15647     15646     15649
     15648     15646     15649     15649     15652     15653     15649     15652     15654
     15650     15649     15651     15650     15649     15652     15651     15649     15652
     15652     15654     15655     15652     15654     15659     15653     15652     15654
     15654     15655     15656     15654     15655     15657     15654     15655     15658
     15654     15659     15660     15654     15659     15661     15654     15659     15662
     15655     15654     15659     15656     15655     15657     15656     15655     15658
     15657     15655     15658     15659     15662     15663     15659     15662     15664
     15660     15659     15661     15660     15659     15662     15661     15659     15662
     15663     15662     15664     15665     15667     15668     15665     15667     15669
     15665     15667     15670     15665     15671     15672     15665     15671     15673
     15665     15671     15674     15666     15665     15667     15666     15665     15671
     15667     15665     15671     15668     15667     15669     15668     15667     15670
     15669     15667     15670     15671     15674     15675     15671     15674     15676
     15671     15674     15677     15672     15671     15673     15672     15671     15674
     15673     15671     15674     15674     15677     15678     15674     15677     15679
     15674     15677     15680     15675     15674     15676     15675     15674     15677
     15676     15674     15677     15677     15680     15681     15677     15680     15682
     15677     15680     15686     15678     15677     15679     15678     15677     15680
     15679     15677     15680     15680     15682     15683     15680     15682     15684
     15680     15682     15685     15680     15686     15687     15680     15686     15688
     15680     15686     15689     15681     15680     15682     15681     15680     15686
     15682     15680     15686     15683     15682     15684     15683     15682     15685
     15684     15682     15685     15687     15686     15688     15687     15686     15689
     15688     15686     15689     15690     15691     15692     15690     15691     15693
     15690     15691     15694     15690     15695     15696     15690     15695     15697
     15690     15695     15698     15690     15699     15700     15690     15699     15701
     15690     15699     15702     15690     15703     15704     15690     15703     15705
     15690     15703     15706     15691     15690     15695     15691     15690     15699
     15691     15690     15703     15692     15691     15693     15692     15691     15694
     15693     15691     15694     15695     15690     15699     15695     15690     15703
     15696     15695     15697     15696     15695     15698     15697     15695     15698
     15699     15690     15703     15700     15699     15701     15700     15699     15702
     15701     15699     15702     15703     15706     15707     15703     15706     15708
     15703     15706     15713     15704     15703     15705     15704     15703     15706
     15705     15703     15706     15706     15713     15709     15707     15706     15708
     15707     15706     15713     15708     15706     15713     15709     15712     15714
     15710     15709     15711     15710     15709     15712     15710     15709     15713
     15711     15709     15712     15711     15709     15713     15712     15709     15713
     15712     15714     15715     15712     15714     15716     15712     15714     15719
     15714     15719     15717     15714     15719     15720     15714     15719     15721
     15715     15714     15716     15715     15714     15719     15716     15714     15719
     15717     15719     15720     15717     15719     15721     15717     15769     15770
     15717     15769     15771     15718     15717     15719     15718     15717     15769
     15719     15717     15769     15719     15721     15722     15719     15721     15723
     15719     15721     15725     15720     15719     15721     15721     15723     15724
     15721     15725     15726     15721     15725     15727     15722     15721     15723
     15722     15721     15725     15723     15721     15725     15725     15727     15728
     15725     15727     15729     15726     15725     15727     15727     15729     15730
     15727     15729     15731     15727     15729     15732     15728     15727     15729
     15729     15732     15733     15729     15732     15734     15729     15732     15735
     15730     15729     15731     15730     15729     15732     15731     15729     15732
     15732     15735     15736     15732     15735     15737     15732     15735     15738
     15733     15732     15734     15733     15732     15735     15734     15732     15735
     15735     15738     15739     15735     15738     15740     15735     15738     15741
     15736     15735     15737     15736     15735     15738     15737     15735     15738
     15738     15741     15742     15738     15741     15743     15738     15741     15744
     15739     15738     15740     15739     15738     15741     15740     15738     15741
     15741     15744     15745     15741     15744     15746     15741     15744     15747
     15742     15741     15743     15742     15741     15744     15743     15741     15744
     15744     15747     15748     15744     15747     15749     15744     15747     15750
     15745     15744     15746     15745     15744     15747     15746     15744     15747
     15747     15750     15751     15747     15750     15752     15747     15750     15753
     15748     15747     15749     15748     15747     15750     15749     15747     15750
     15750     15753     15754     15750     15753     15755     15750     15753     15756
     15751     15750     15752     15751     15750     15753     15752     15750     15753
     15753     15756     15757     15753     15756     15758     15753     15756     15759
     15754     15753     15755     15754     15753     15756     15755     15753     15756
     15756     15759     15760     15756     15759     15761     15756     15759     15762
     15757     15756     15758     15757     15756     15759     15758     15756     15759
     15759     15762     15763     15759     15762     15764     15759     15762     15765
     15760     15759     15761     15760     15759     15762     15761     15759     15762
     15762     15765     15766     15762     15765     15767     15762     15765     15768
     15763     15762     15764     15763     15762     15765     15764     15762     15765
     15766     15765     15767     15766     15765     15768     15767     15765     15768
     15769     15771     15772     15769     15771     15773     15769     15771     15774
     15770     15769     15771     15771     15774     15775     15771     15774     15776
     15771     15774     15777     15772     15771     15773     15772     15771     15774
     15773     15771     15774     15774     15777     15778     15774     15777     15779
     15774     15777     15780     15775     15774     15776     15775     15774     15777
     15776     15774     15777     15777     15780     15781     15777     15780     15782
     15777     15780     15783     15778     15777     15779     15778     15777     15780
     15779     15777     15780     15780     15783     15784     15780     15783     15785
     15780     15783     15786     15781     15780     15782     15781     15780     15783
     15782     15780     15783     15783     15786     15787     15783     15786     15788
     15783     15786     15789     15784     15783     15785     15784     15783     15786
     15785     15783     15786     15786     15789     15790     15786     15789     15791
     15786     15789     15792     15787     15786     15788     15787     15786     15789
     15788     15786     15789     15789     15792     15793     15789     15792     15794
     15790     15789     15791     15790     15789     15792     15791     15789     15792
     15792     15794     15795     15792     15794     15796     15793     15792     15794
     15794     15796     15797     15794     15796     15798     15794     15796     15799
     15795     15794     15796     15796     15799     15800     15796     15799     15801
     15796     15799     15802     15797     15796     15798     15797     15796     15799
     15798     15796     15799     15799     15802     15803     15799     15802     15804
     15799     15802     15805     15800     15799     15801     15800     15799     15802
     15801     15799     15802     15802     15805     15806     15802     15805     15807
     15802     15805     15808     15803     15802     15804     15803     15802     15805
     15804     15802     15805     15805     15808     15809     15805     15808     15810
     15805     15808     15811     15806     15805     15807     15806     15805     15808
     15807     15805     15808     15808     15811     15812     15808     15811     15813
     15808     15811     15814     15809     15808     15810     15809     15808     15811
     15810     15808     15811     15811     15814     15815     15811     15814     15816
     15811     15814     15817     15812     15811     15813     15812     15811     15814
     15813     15811     15814     15814     15817     15818     15814     15817     15819
     15814     15817     15820     15815     15814     15816     15815     15814     15817
     15816     15814     15817     15818     15817     15819     15818     15817     15820
     15819     15817     15820     15821     15825     15826     15821     15825     15827
     15821     15825     15828     15822     15821     15823     15822     15821     15824
     15822     15821     15825     15823     15821     15824     15823     15821     15825
     15824     15821     15825     15825     15828     15829     15825     15828     15830
     15825     15828     15834     15826     15825     15827     15826     15825     15828
     15827     15825     15828     15828     15834     15831     15829     15828     15830
     15829     15828     15834     15830     15828     15834     15831     15835     15836
     15832     15831     15833     15832     15831     15834     15832     15831     15835
     15833     15831     15834     15833     15831     15835     15834     15831     15835
     15835     15836     15837     15835     15836     15838     15835     15836     15839
     15836     15839     15840     15836     15839     15841     15836     15839     15847
     15837     15836     15838     15837     15836     15839     15838     15836     15839
     15839     15841     15842     15839     15847     15848     15839     15847     15849
     15839     15847     15850     15840     15839     15841     15840     15839     15847
     15841     15839     15847     15841     15842     15843     15841     15842     15844
     15842     15844     15845     15842     15844     15846     15842     15844     15856
     15843     15842     15844     15844     15856     15857     15844     15856     15858
     15844     15856     15859     15845     15844     15846     15845     15844     15856
     15846     15844     15856     15847     15850     15851     15848     15847     15849
     15848     15847     15850     15849     15847     15850     15850     15851     15852
     15850     15851     15853     15851     15853     15854     15851     15853     15855
     15851     15853     15903     15852     15851     15853     15853     15903     15904
     15853     15903     15905     15853     15903     15906     15854     15853     15855
     15854     15853     15903     15855     15853     15903     15856     15859     15860
     15856     15859     15861     15856     15859     15862     15857     15856     15858
     15857     15856     15859     15858     15856     15859     15859     15862     15863
     15859     15862     15864     15860     15859     15861     15860     15859     15862
     15861     15859     15862     15862     15864     15865     15862     15864     15866
     15863     15862     15864     15864     15866     15867     15864     15866     15868
     15864     15866     15869     15865     15864     15866     15866     15869     15870
     15866     15869     15871     15867     15866     15868     15867     15866     15869
     15868     15866     15869     15869     15871     15872     15869     15871     15873
     15870     15869     15871     15871     15873     15874     15871     15873     15875
     15871     15873     15876     15872     15871     15873     15873     15876     15877
     15873     15876     15878     15874     15873     15875     15874     15873     15876
     15875     15873     15876     15876     15878     15879     15876     15878     15880
     15877     15876     15878     15878     15880     15881     15878     15880     15882
     15878     15880     15883     15879     15878     15880     15880     15883     15884
     15880     15883     15885     15881     15880     15882     15881     15880     15883
     15882     15880     15883     15883     15885     15886     15883     15885     15887
     15884     15883     15885     15885     15887     15888     15885     15887     15889
     15885     15887     15890     15886     15885     15887     15887     15890     15891
     15887     15890     15892     15887     15890     15893     15888     15887     15889
     15888     15887     15890     15889     15887     15890     15890     15893     15894
     15890     15893     15895     15890     15893     15896     15891     15890     15892
     15891     15890     15893     15892     15890     15893     15893     15896     15897
     15893     15896     15898     15893     15896     15899     15894     15893     15895
     15894     15893     15896     15895     15893     15896     15896     15899     15900
     15896     15899     15901     15896     15899     15902     15897     15896     15898
     15897     15896     15899     15898     15896     15899     15900     15899     15901
     15900     15899     15902     15901     15899     15902     15903     15906     15907
     15903     15906     15908     15903     15906     15909     15904     15903     15905
     15904     15903     15906     15905     15903     15906     15906     15909     15910
     15906     15909     15911     15906     15909     15912     15907     15906     15908
     15907     15906     15909     15908     15906     15909     15909     15912     15913
     15909     15912     15914     15909     15912     15915     15910     15909     15911
     15910     15909     15912     15911     15909     15912     15912     15915     15916
     15912     15915     15917     15912     15915     15918     15913     15912     15914
     15913     15912     15915     15914     15912     15915     15915     15918     15919
     15915     15918     15920     15915     15918     15921     15916     15915     15917
     15916     15915     15918     15917     15915     15918     15918     15921     15922
     15918     15921     15923     15918     15921     15924     15919     15918     15920
     15919     15918     15921     15920     15918     15921     15921     15924     15925
     15921     15924     15926     15921     15924     15927     15922     15921     15923
     15922     15921     15924     15923     15921     15924     15924     15927     15928
     15924     15927     15929     15924     15927     15930     15925     15924     15926
     15925     15924     15927     15926     15924     15927     15927     15930     15931
     15927     15930     15932     15927     15930     15933     15928     15927     15929
     15928     15927     15930     15929     15927     15930     15930     15933     15934
     15930     15933     15935     15930     15933     15936     15931     15930     15932
     15931     15930     15933     15932     15930     15933     15933     15936     15937
     15933     15936     15938     15933     15936     15939     15934     15933     15935
     15934     15933     15936     15935     15933     15936     15936     15939     15940
     15936     15939     15941     15936     15939     15942     15937     15936     15938
     15937     15936     15939     15938     15936     15939     15939     15942     15943
     15939     15942     15944     15939     15942     15945     15940     15939     15941
     15940     15939     15942     15941     15939     15942     15942     15945     15946
     15942     15945     15947     15942     15945     15948     15943     15942     15944
     15943     15942     15945     15944     15942     15945     15945     15948     15949
     15945     15948     15950     15945     15948     15951     15946     15945     15947
     15946     15945     15948     15947     15945     15948     15949     15948     15950
     15949     15948     15951     15950     15948     15951     15952     15953     15954
     15952     15953     15955     15952     15953     15956     15952     15957     15958
     15952     15957     15959     15952     15957     15960     15952     15961     15962
     15952     15961     15963     15952     15961     15964     15952     15965     15966
     15952     15965     15967     15952     15965     15968     15953     15952     15957
     15953     15952     15961     15953     15952     15965     15954     15953     15955
     15954     15953     15956     15955     15953     15956     15957     15952     15961
     15957     15952     15965     15958     15957     15959     15958     15957     15960
     15959     15957     15960     15961     15952     15965     15962     15961     15963
     15962     15961     15964     15963     15961     15964     15965     15968     15969
     15965     15968     15970     15965     15968     15974     15966     15965     15967
     15966     15965     15968     15967     15965     15968     15968     15974     15971
     15969     15968     15970     15969     15968     15974     15970     15968     15974
     15971     15975     15976     15972     15971     15973     15972     15971     15974
     15972     15971     15975     15973     15971     15974     15973     15971     15975
     15974     15971     15975     15975     15976     15977     15975     15976     15978
     15975     15976     15979     15976     15979     15980     15976     15979     15981
     15976     15979     15987     15977     15976     15978     15977     15976     15979
     15978     15976     15979     15979     15981     15982     15979     15987     15988
     15979     15987     15989     15979     15987     15990     15980     15979     15981
     15980     15979     15987     15981     15979     15987     15981     15982     15983
     15981     15982     15984     15982     15984     15985     15982     15984     15986
     15982     15984     15996     15983     15982     15984     15984     15996     15997
     15984     15996     15998     15984     15996     15999     15985     15984     15986
     15985     15984     15996     15986     15984     15996     15987     15990     15991
     15988     15987     15989     15988     15987     15990     15989     15987     15990
     15990     15991     15992     15990     15991     15993     15991     15993     15994
     15991     15993     15995     15991     15993     16041     15992     15991     15993
     15993     16041     16042     15993     16041     16043     15993     16041     16044
     15994     15993     15995     15994     15993     16041     15995     15993     16041
     15996     15999     16000     15996     15999     16001     15996     15999     16002
     15997     15996     15998     15997     15996     15999     15998     15996     15999
     15999     16002     16003     15999     16002     16004     15999     16002     16005
     16000     15999     16001     16000     15999     16002     16001     15999     16002
     16002     16005     16006     16002     16005     16007     16002     16005     16008
     16003     16002     16004     16003     16002     16005     16004     16002     16005
     16005     16008     16009     16005     16008     16010     16005     16008     16011
     16006     16005     16007     16006     16005     16008     16007     16005     16008
     16008     16011     16012     16008     16011     16013     16008     16011     16014
     16009     16008     16010     16009     16008     16011     16010     16008     16011
     16011     16014     16015     16011     16014     16016     16012     16011     16013
     16012     16011     16014     16013     16011     16014     16014     16016     16017
     16014     16016     16018     16015     16014     16016     16016     16018     16019
     16016     16018     16020     16016     16018     16021     16017     16016     16018
     16018     16021     16022     16018     16021     16023     16019     16018     16020
     16019     16018     16021     16020     16018     16021     16021     16023     16024
     16021     16023     16025     16022     16021     16023     16023     16025     16026
     16023     16025     16027     16023     16025     16028     16024     16023     16025
     16025     16028     16029     16025     16028     16030     16025     16028     16031
     16026     16025     16027     16026     16025     16028     16027     16025     16028
     16028     16031     16032     16028     16031     16033     16028     16031     16034
     16029     16028     16030     16029     16028     16031     16030     16028     16031
     16031     16034     16035     16031     16034     16036     16031     16034     16037
     16032     16031     16033     16032     16031     16034     16033     16031     16034
     16034     16037     16038     16034     16037     16039     16034     16037     16040
     16035     16034     16036     16035     16034     16037     16036     16034     16037
     16038     16037     16039     16038     16037     16040     16039     16037     16040
     16041     16044     16045     16041     16044     16046     16041     16044     16047
     16042     16041     16043     16042     16041     16044     16043     16041     16044
     16044     16047     16048     16044     16047     16049     16044     16047     16050
     16045     16044     16046     16045     16044     16047     16046     16044     16047
     16047     16050     16051     16047     16050     16052     16047     16050     16053
     16048     16047     16049     16048     16047     16050     16049     16047     16050
     16050     16053     16054     16050     16053     16055     16050     16053     16056
     16051     16050     16052     16051     16050     16053     16052     16050     16053
     16053     16056     16057     16053     16056     16058     16053     16056     16059
     16054     16053     16055     16054     16053     16056     16055     16053     16056
     16056     16059     16060     16056     16059     16061     16056     16059     16062
     16057     16056     16058     16057     16056     16059     16058     16056     16059
     16059     16062     16063     16059     16062     16064     16059     16062     16065
     16060     16059     16061     16060     16059     16062     16061     16059     16062
     16062     16065     16066     16062     16065     16067     16062     16065     16068
     16063     16062     16064     16063     16062     16065     16064     16062     16065
     16065     16068     16069     16065     16068     16070     16065     16068     16071
     16066     16065     16067     16066     16065     16068     16067     16065     16068
     16068     16071     16072     16068     16071     16073     16068     16071     16074
     16069     16068     16070     16069     16068     16071     16070     16068     16071
     16071     16074     16075     16071     16074     16076     16071     16074     16077
     16072     16071     16073     16072     16071     16074     16073     16071     16074
     16074     16077     16078     16074     16077     16079     16074     16077     16080
     16075     16074     16076     16075     16074     16077     16076     16074     16077
     16077     16080     16081     16077     16080     16082     16077     16080     16083
     16078     16077     16079     16078     16077     16080     16079     16077     16080
     16080     16083     16084     16080     16083     16085     16080     16083     16086
     16081     16080     16082     16081     16080     16083     16082     16080     16083
     16083     16086     16087     16083     16086     16088     16083     16086     16089
     16084     16083     16085     16084     16083     16086     16085     16083     16086
     16087     16086     16088     16087     16086     16089     16088     16086     16089
     16090     16091     16092     16090     16091     16093     16090     16091     16094
     16090     16095     16096     16090     16095     16097     16090     16095     16098
     16090     16099     16100     16090     16099     16101     16090     16099     16102
     16090     16103     16104     16090     16103     16105     16090     16103     16106
     16091     16090     16095     16091     16090     16099     16091     16090     16103
     16092     16091     16093     16092     16091     16094     16093     16091     16094
     16095     16090     16099     16095     16090     16103     16096     16095     16097
     16096     16095     16098     16097     16095     16098     16099     16090     16103
     16100     16099     16101     16100     16099     16102     16101     16099     16102
     16103     16106     16107     16103     16106     16108     16103     16106     16112
     16104     16103     16105     16104     16103     16106     16105     16103     16106
     16106     16112     16109     16107     16106     16108     16107     16106     16112
     16108     16106     16112     16109     16113     16114     16110     16109     16111
     16110     16109     16112     16110     16109     16113     16111     16109     16112
     16111     16109     16113     16112     16109     16113     16113     16114     16115
     16113     16114     16116     16113     16114     16117     16114     16117     16118
     16114     16117     16119     16114     16117     16125     16115     16114     16116
     16115     16114     16117     16116     16114     16117     16117     16119     16120
     16117     16125     16126     16117     16125     16127     16117     16125     16128
     16118     16117     16119     16118     16117     16125     16119     16117     16125
     16119     16120     16121     16119     16120     16122     16120     16122     16123
     16120     16122     16124     16120     16122     16134     16121     16120     16122
     16122     16134     16135     16122     16134     16136     16122     16134     16137
     16123     16122     16124     16123     16122     16134     16124     16122     16134
     16125     16128     16129     16126     16125     16127     16126     16125     16128
     16127     16125     16128     16128     16129     16130     16128     16129     16131
     16129     16131     16132     16129     16131     16133     16129     16131     16179
     16130     16129     16131     16131     16179     16180     16131     16179     16181
     16131     16179     16182     16132     16131     16133     16132     16131     16179
     16133     16131     16179     16134     16137     16138     16134     16137     16139
     16134     16137     16140     16135     16134     16136     16135     16134     16137
     16136     16134     16137     16137     16140     16141     16137     16140     16142
     16137     16140     16143     16138     16137     16139     16138     16137     16140
     16139     16137     16140     16140     16143     16144     16140     16143     16145
     16140     16143     16146     16141     16140     16142     16141     16140     16143
     16142     16140     16143     16143     16146     16147     16143     16146     16148
     16143     16146     16149     16144     16143     16145     16144     16143     16146
     16145     16143     16146     16146     16149     16150     16146     16149     16151
     16146     16149     16152     16147     16146     16148     16147     16146     16149
     16148     16146     16149     16149     16152     16153     16149     16152     16154
     16150     16149     16151     16150     16149     16152     16151     16149     16152
     16152     16154     16155     16152     16154     16156     16153     16152     16154
     16154     16156     16157     16154     16156     16158     16154     16156     16159
     16155     16154     16156     16156     16159     16160     16156     16159     16161
     16157     16156     16158     16157     16156     16159     16158     16156     16159
     16159     16161     16162     16159     16161     16163     16160     16159     16161
     16161     16163     16164     16161     16163     16165     16161     16163     16166
     16162     16161     16163     16163     16166     16167     16163     16166     16168
     16163     16166     16169     16164     16163     16165     16164     16163     16166
     16165     16163     16166     16166     16169     16170     16166     16169     16171
     16166     16169     16172     16167     16166     16168     16167     16166     16169
     16168     16166     16169     16169     16172     16173     16169     16172     16174
     16169     16172     16175     16170     16169     16171     16170     16169     16172
     16171     16169     16172     16172     16175     16176     16172     16175     16177
     16172     16175     16178     16173     16172     16174     16173     16172     16175
     16174     16172     16175     16176     16175     16177     16176     16175     16178
     16177     16175     16178     16179     16182     16183     16179     16182     16184
     16179     16182     16185     16180     16179     16181     16180     16179     16182
     16181     16179     16182     16182     16185     16186     16182     16185     16187
     16182     16185     16188     16183     16182     16184     16183     16182     16185
     16184     16182     16185     16185     16188     16189     16185     16188     16190
     16185     16188     16191     16186     16185     16187     16186     16185     16188
     16187     16185     16188     16188     16191     16192     16188     16191     16193
     16188     16191     16194     16189     16188     16190     16189     16188     16191
     16190     16188     16191     16191     16194     16195     16191     16194     16196
     16191     16194     16197     16192     16191     16193     16192     16191     16194
     16193     16191     16194     16194     16197     16198     16194     16197     16199
     16194     16197     16200     16195     16194     16196     16195     16194     16197
     16196     16194     16197     16197     16200     16201     16197     16200     16202
     16197     16200     16203     16198     16197     16199     16198     16197     16200
     16199     16197     16200     16200     16203     16204     16200     16203     16205
     16200     16203     16206     16201     16200     16202     16201     16200     16203
     16202     16200     16203     16203     16206     16207     16203     16206     16208
     16203     16206     16209     16204     16203     16205     16204     16203     16206
     16205     16203     16206     16206     16209     16210     16206     16209     16211
     16206     16209     16212     16207     16206     16208     16207     16206     16209
     16208     16206     16209     16209     16212     16213     16209     16212     16214
     16209     16212     16215     16210     16209     16211     16210     16209     16212
     16211     16209     16212     16212     16215     16216     16212     16215     16217
     16212     16215     16218     16213     16212     16214     16213     16212     16215
     16214     16212     16215     16215     16218     16219     16215     16218     16220
     16215     16218     16221     16216     16215     16217     16216     16215     16218
     16217     16215     16218     16218     16221     16222     16218     16221     16223
     16218     16221     16224     16219     16218     16220     16219     16218     16221
     16220     16218     16221     16221     16224     16225     16221     16224     16226
     16221     16224     16227     16222     16221     16223     16222     16221     16224
     16223     16221     16224     16225     16224     16226     16225     16224     16227
     16226     16224     16227     16228     16229     16230     16228     16229     16231
     16228     16229     16232     16228     16233     16234     16228     16233     16235
     16228     16233     16236     16228     16237     16238     16228     16237     16239
     16228     16237     16240     16228     16241     16242     16228     16241     16243
     16228     16241     16244     16229     16228     16233     16229     16228     16237
     16229     16228     16241     16230     16229     16231     16230     16229     16232
     16231     16229     16232     16233     16228     16237     16233     16228     16241
     16234     16233     16235     16234     16233     16236     16235     16233     16236
     16237     16228     16241     16238     16237     16239     16238     16237     16240
     16239     16237     16240     16241     16244     16245     16241     16244     16246
     16241     16244     16251     16242     16241     16243     16242     16241     16244
     16243     16241     16244     16244     16251     16247     16245     16244     16246
     16245     16244     16251     16246     16244     16251     16247     16250     16252
     16248     16247     16249     16248     16247     16250     16248     16247     16251
     16249     16247     16250     16249     16247     16251     16250     16247     16251
     16250     16252     16253     16250     16252     16254     16250     16252     16257
     16252     16257     16255     16252     16257     16258     16252     16257     16259
     16253     16252     16254     16253     16252     16257     16254     16252     16257
     16255     16257     16258     16255     16257     16259     16255     16307     16308
     16255     16307     16309     16256     16255     16257     16256     16255     16307
     16257     16255     16307     16257     16259     16260     16257     16259     16261
     16257     16259     16263     16258     16257     16259     16259     16261     16262
     16259     16263     16264     16259     16263     16265     16260     16259     16261
     16260     16259     16263     16261     16259     16263     16263     16265     16266
     16263     16265     16267     16264     16263     16265     16265     16267     16268
     16265     16267     16269     16265     16267     16270     16266     16265     16267
     16267     16270     16271     16267     16270     16272     16267     16270     16273
     16268     16267     16269     16268     16267     16270     16269     16267     16270
     16270     16273     16274     16270     16273     16275     16270     16273     16276
     16271     16270     16272     16271     16270     16273     16272     16270     16273
     16273     16276     16277     16273     16276     16278     16273     16276     16279
     16274     16273     16275     16274     16273     16276     16275     16273     16276
     16276     16279     16280     16276     16279     16281     16276     16279     16282
     16277     16276     16278     16277     16276     16279     16278     16276     16279
     16279     16282     16283     16279     16282     16284     16279     16282     16285
     16280     16279     16281     16280     16279     16282     16281     16279     16282
     16282     16285     16286     16282     16285     16287     16282     16285     16288
     16283     16282     16284     16283     16282     16285     16284     16282     16285
     16285     16288     16289     16285     16288     16290     16285     16288     16291
     16286     16285     16287     16286     16285     16288     16287     16285     16288
     16288     16291     16292     16288     16291     16293     16288     16291     16294
     16289     16288     16290     16289     16288     16291     16290     16288     16291
     16291     16294     16295     16291     16294     16296     16291     16294     16297
     16292     16291     16293     16292     16291     16294     16293     16291     16294
     16294     16297     16298     16294     16297     16299     16294     16297     16300
     16295     16294     16296     16295     16294     16297     16296     16294     16297
     16297     16300     16301     16297     16300     16302     16297     16300     16303
     16298     16297     16299     16298     16297     16300     16299     16297     16300
     16300     16303     16304     16300     16303     16305     16300     16303     16306
     16301     16300     16302     16301     16300     16303     16302     16300     16303
     16304     16303     16305     16304     16303     16306     16305     16303     16306
     16307     16309     16310     16307     16309     16311     16307     16309     16312
     16308     16307     16309     16309     16312     16313     16309     16312     16314
     16309     16312     16315     16310     16309     16311     16310     16309     16312
     16311     16309     16312     16312     16315     16316     16312     16315     16317
     16312     16315     16318     16313     16312     16314     16313     16312     16315
     16314     16312     16315     16315     16318     16319     16315     16318     16320
     16315     16318     16321     16316     16315     16317     16316     16315     16318
     16317     16315     16318     16318     16321     16322     16318     16321     16323
     16318     16321     16324     16319     16318     16320     16319     16318     16321
     16320     16318     16321     16321     16324     16325     16321     16324     16326
     16321     16324     16327     16322     16321     16323     16322     16321     16324
     16323     16321     16324     16324     16327     16328     16324     16327     16329
     16324     16327     16330     16325     16324     16326     16325     16324     16327
     16326     16324     16327     16327     16330     16331     16327     16330     16332
     16328     16327     16329     16328     16327     16330     16329     16327     16330
     16330     16332     16333     16330     16332     16334     16331     16330     16332
     16332     16334     16335     16332     16334     16336     16332     16334     16337
     16333     16332     16334     16334     16337     16338     16334     16337     16339
     16334     16337     16340     16335     16334     16336     16335     16334     16337
     16336     16334     16337     16337     16340     16341     16337     16340     16342
     16337     16340     16343     16338     16337     16339     16338     16337     16340
     16339     16337     16340     16340     16343     16344     16340     16343     16345
     16340     16343     16346     16341     16340     16342     16341     16340     16343
     16342     16340     16343     16343     16346     16347     16343     16346     16348
     16343     16346     16349     16344     16343     16345     16344     16343     16346
     16345     16343     16346     16346     16349     16350     16346     16349     16351
     16346     16349     16352     16347     16346     16348     16347     16346     16349
     16348     16346     16349     16349     16352     16353     16349     16352     16354
     16349     16352     16355     16350     16349     16351     16350     16349     16352
     16351     16349     16352     16352     16355     16356     16352     16355     16357
     16352     16355     16358     16353     16352     16354     16353     16352     16355
     16354     16352     16355     16356     16355     16357     16356     16355     16358
     16357     16355     16358     16359     16363     16364     16359     16363     16365
     16359     16363     16368     16360     16359     16361     16360     16359     16362
     16360     16359     16363     16361     16359     16362     16361     16359     16363
     16362     16359     16363     16363     16365     16366     16363     16365     16367
     16363     16368     16369     16363     16368     16370     16363     16368     16374
     16364     16363     16365     16364     16363     16368     16365     16363     16368
     16366     16365     16367     16368     16374     16371     16369     16368     16370
     16369     16368     16374     16370     16368     16374     16371     16375     16376
     16372     16371     16373     16372     16371     16374     16372     16371     16375
     16373     16371     16374     16373     16371     16375     16374     16371     16375
     16375     16376     16377     16375     16376     16378     16375     16376     16379
     16376     16379     16380     16376     16379     16381     16376     16379     16387
     16377     16376     16378     16377     16376     16379     16378     16376     16379
     16379     16381     16382     16379     16387     16388     16379     16387     16389
     16379     16387     16390     16380     16379     16381     16380     16379     16387
     16381     16379     16387     16381     16382     16383     16381     16382     16384
     16382     16384     16385     16382     16384     16386     16382     16384     16396
     16383     16382     16384     16384     16396     16397     16384     16396     16398
     16384     16396     16399     16385     16384     16386     16385     16384     16396
     16386     16384     16396     16387     16390     16391     16388     16387     16389
     16388     16387     16390     16389     16387     16390     16390     16391     16392
     16390     16391     16393     16391     16393     16394     16391     16393     16395
     16391     16393     16443     16392     16391     16393     16393     16443     16444
     16393     16443     16445     16393     16443     16446     16394     16393     16395
     16394     16393     16443     16395     16393     16443     16396     16399     16400
     16396     16399     16401     16396     16399     16402     16397     16396     16398
     16397     16396     16399     16398     16396     16399     16399     16402     16403
     16399     16402     16404     16400     16399     16401     16400     16399     16402
     16401     16399     16402     16402     16404     16405     16402     16404     16406
     16403     16402     16404     16404     16406     16407     16404     16406     16408
     16404     16406     16409     16405     16404     16406     16406     16409     16410
     16406     16409     16411     16407     16406     16408     16407     16406     16409
     16408     16406     16409     16409     16411     16412     16409     16411     16413
     16410     16409     16411     16411     16413     16414     16411     16413     16415
     16411     16413     16416     16412     16411     16413     16413     16416     16417
     16413     16416     16418     16414     16413     16415     16414     16413     16416
     16415     16413     16416     16416     16418     16419     16416     16418     16420
     16417     16416     16418     16418     16420     16421     16418     16420     16422
     16418     16420     16423     16419     16418     16420     16420     16423     16424
     16420     16423     16425     16421     16420     16422     16421     16420     16423
     16422     16420     16423     16423     16425     16426     16423     16425     16427
     16424     16423     16425     16425     16427     16428     16425     16427     16429
     16425     16427     16430     16426     16425     16427     16427     16430     16431
     16427     16430     16432     16427     16430     16433     16428     16427     16429
     16428     16427     16430     16429     16427     16430     16430     16433     16434
     16430     16433     16435     16430     16433     16436     16431     16430     16432
     16431     16430     16433     16432     16430     16433     16433     16436     16437
     16433     16436     16438     16433     16436     16439     16434     16433     16435
     16434     16433     16436     16435     16433     16436     16436     16439     16440
     16436     16439     16441     16436     16439     16442     16437     16436     16438
     16437     16436     16439     16438     16436     16439     16440     16439     16441
     16440     16439     16442     16441     16439     16442     16443     16446     16447
     16443     16446     16448     16443     16446     16449     16444     16443     16445
     16444     16443     16446     16445     16443     16446     16446     16449     16450
     16446     16449     16451     16446     16449     16452     16447     16446     16448
     16447     16446     16449     16448     16446     16449     16449     16452     16453
     16449     16452     16454     16449     16452     16455     16450     16449     16451
     16450     16449     16452     16451     16449     16452     16452     16455     16456
     16452     16455     16457     16452     16455     16458     16453     16452     16454
     16453     16452     16455     16454     16452     16455     16455     16458     16459
     16455     16458     16460     16455     16458     16461     16456     16455     16457
     16456     16455     16458     16457     16455     16458     16458     16461     16462
     16458     16461     16463     16458     16461     16464     16459     16458     16460
     16459     16458     16461     16460     16458     16461     16461     16464     16465
     16461     16464     16466     16461     16464     16467     16462     16461     16463
     16462     16461     16464     16463     16461     16464     16464     16467     16468
     16464     16467     16469     16464     16467     16470     16465     16464     16466
     16465     16464     16467     16466     16464     16467     16467     16470     16471
     16467     16470     16472     16467     16470     16473     16468     16467     16469
     16468     16467     16470     16469     16467     16470     16470     16473     16474
     16470     16473     16475     16470     16473     16476     16471     16470     16472
     16471     16470     16473     16472     16470     16473     16473     16476     16477
     16473     16476     16478     16473     16476     16479     16474     16473     16475
     16474     16473     16476     16475     16473     16476     16476     16479     16480
     16476     16479     16481     16476     16479     16482     16477     16476     16478
     16477     16476     16479     16478     16476     16479     16479     16482     16483
     16479     16482     16484     16479     16482     16485     16480     16479     16481
     16480     16479     16482     16481     16479     16482     16482     16485     16486
     16482     16485     16487     16482     16485     16488     16483     16482     16484
     16483     16482     16485     16484     16482     16485     16485     16488     16489
     16485     16488     16490     16485     16488     16491     16486     16485     16487
     16486     16485     16488     16487     16485     16488     16489     16488     16490
     16489     16488     16491     16490     16488     16491     16492     16493     16494
     16492     16493     16495     16492     16493     16496     16492     16497     16498
     16492     16497     16499     16492     16497     16500     16492     16501     16502
     16492     16501     16503     16492     16501     16504     16492     16505     16506
     16492     16505     16507     16492     16505     16508     16493     16492     16497
     16493     16492     16501     16493     16492     16505     16494     16493     16495
     16494     16493     16496     16495     16493     16496     16497     16492     16501
     16497     16492     16505     16498     16497     16499     16498     16497     16500
     16499     16497     16500     16501     16492     16505     16502     16501     16503
     16502     16501     16504     16503     16501     16504     16505     16508     16509
     16505     16508     16510     16505     16508     16514     16506     16505     16507
     16506     16505     16508     16507     16505     16508     16508     16514     16511
     16509     16508     16510     16509     16508     16514     16510     16508     16514
     16511     16515     16516     16512     16511     16513     16512     16511     16514
     16512     16511     16515     16513     16511     16514     16513     16511     16515
     16514     16511     16515     16515     16516     16517     16515     16516     16518
     16515     16516     16519     16516     16519     16520     16516     16519     16521
     16516     16519     16527     16517     16516     16518     16517     16516     16519
     16518     16516     16519     16519     16521     16522     16519     16527     16528
     16519     16527     16529     16519     16527     16530     16520     16519     16521
     16520     16519     16527     16521     16519     16527     16521     16522     16523
     16521     16522     16524     16522     16524     16525     16522     16524     16526
     16522     16524     16536     16523     16522     16524     16524     16536     16537
     16524     16536     16538     16524     16536     16539     16525     16524     16526
     16525     16524     16536     16526     16524     16536     16527     16530     16531
     16528     16527     16529     16528     16527     16530     16529     16527     16530
     16530     16531     16532     16530     16531     16533     16531     16533     16534
     16531     16533     16535     16531     16533     16581     16532     16531     16533
     16533     16581     16582     16533     16581     16583     16533     16581     16584
     16534     16533     16535     16534     16533     16581     16535     16533     16581
     16536     16539     16540     16536     16539     16541     16536     16539     16542
     16537     16536     16538     16537     16536     16539     16538     16536     16539
     16539     16542     16543     16539     16542     16544     16539     16542     16545
     16540     16539     16541     16540     16539     16542     16541     16539     16542
     16542     16545     16546     16542     16545     16547     16542     16545     16548
     16543     16542     16544     16543     16542     16545     16544     16542     16545
     16545     16548     16549     16545     16548     16550     16545     16548     16551
     16546     16545     16547     16546     16545     16548     16547     16545     16548
     16548     16551     16552     16548     16551     16553     16548     16551     16554
     16549     16548     16550     16549     16548     16551     16550     16548     16551
     16551     16554     16555     16551     16554     16556     16552     16551     16553
     16552     16551     16554     16553     16551     16554     16554     16556     16557
     16554     16556     16558     16555     16554     16556     16556     16558     16559
     16556     16558     16560     16556     16558     16561     16557     16556     16558
     16558     16561     16562     16558     16561     16563     16559     16558     16560
     16559     16558     16561     16560     16558     16561     16561     16563     16564
     16561     16563     16565     16562     16561     16563     16563     16565     16566
     16563     16565     16567     16563     16565     16568     16564     16563     16565
     16565     16568     16569     16565     16568     16570     16565     16568     16571
     16566     16565     16567     16566     16565     16568     16567     16565     16568
     16568     16571     16572     16568     16571     16573     16568     16571     16574
     16569     16568     16570     16569     16568     16571     16570     16568     16571
     16571     16574     16575     16571     16574     16576     16571     16574     16577
     16572     16571     16573     16572     16571     16574     16573     16571     16574
     16574     16577     16578     16574     16577     16579     16574     16577     16580
     16575     16574     16576     16575     16574     16577     16576     16574     16577
     16578     16577     16579     16578     16577     16580     16579     16577     16580
     16581     16584     16585     16581     16584     16586     16581     16584     16587
     16582     16581     16583     16582     16581     16584     16583     16581     16584
     16584     16587     16588     16584     16587     16589     16584     16587     16590
     16585     16584     16586     16585     16584     16587     16586     16584     16587
     16587     16590     16591     16587     16590     16592     16587     16590     16593
     16588     16587     16589     16588     16587     16590     16589     16587     16590
     16590     16593     16594     16590     16593     16595     16590     16593     16596
     16591     16590     16592     16591     16590     16593     16592     16590     16593
     16593     16596     16597     16593     16596     16598     16593     16596     16599
     16594     16593     16595     16594     16593     16596     16595     16593     16596
     16596     16599     16600     16596     16599     16601     16596     16599     16602
     16597     16596     16598     16597     16596     16599     16598     16596     16599
     16599     16602     16603     16599     16602     16604     16599     16602     16605
     16600     16599     16601     16600     16599     16602     16601     16599     16602
     16602     16605     16606     16602     16605     16607     16602     16605     16608
     16603     16602     16604     16603     16602     16605     16604     16602     16605
     16605     16608     16609     16605     16608     16610     16605     16608     16611
     16606     16605     16607     16606     16605     16608     16607     16605     16608
     16608     16611     16612     16608     16611     16613     16608     16611     16614
     16609     16608     16610     16609     16608     16611     16610     16608     16611
     16611     16614     16615     16611     16614     16616     16611     16614     16617
     16612     16611     16613     16612     16611     16614     16613     16611     16614
     16614     16617     16618     16614     16617     16619     16614     16617     16620
     16615     16614     16616     16615     16614     16617     16616     16614     16617
     16617     16620     16621     16617     16620     16622     16617     16620     16623
     16618     16617     16619     16618     16617     16620     16619     16617     16620
     16620     16623     16624     16620     16623     16625     16620     16623     16626
     16621     16620     16622     16621     16620     16623     16622     16620     16623
     16623     16626     16627     16623     16626     16628     16623     16626     16629
     16624     16623     16625     16624     16623     16626     16625     16623     16626
     16627     16626     16628     16627     16626     16629     16628     16626     16629
     16630     16634     16635     16630     16634     16636     16630     16634     16639
     16631     16630     16632     16631     16630     16633     16631     16630     16634
     16632     16630     16633     16632     16630     16634     16633     16630     16634
     16634     16636     16637     16634     16636     16638     16634     16639     16640
     16634     16639     16641     16634     16639     16645     16635     16634     16636
     16635     16634     16639     16636     16634     16639     16637     16636     16638
     16639     16645     16642     16640     16639     16641     16640     16639     16645
     16641     16639     16645     16642     16646     16647     16643     16642     16644
     16643     16642     16645     16643     16642     16646     16644     16642     16645
     16644     16642     16646     16645     16642     16646     16646     16647     16648
     16646     16647     16649     16646     16647     16650     16647     16650     16651
     16647     16650     16652     16647     16650     16658     16648     16647     16649
     16648     16647     16650     16649     16647     16650     16650     16652     16653
     16650     16658     16659     16650     16658     16660     16650     16658     16661
     16651     16650     16652     16651     16650     16658     16652     16650     16658
     16652     16653     16654     16652     16653     16655     16653     16655     16656
     16653     16655     16657     16653     16655     16667     16654     16653     16655
     16655     16667     16668     16655     16667     16669     16655     16667     16670
     16656     16655     16657     16656     16655     16667     16657     16655     16667
     16658     16661     16662     16659     16658     16660     16659     16658     16661
     16660     16658     16661     16661     16662     16663     16661     16662     16664
     16662     16664     16665     16662     16664     16666     16662     16664     16714
     16663     16662     16664     16664     16714     16715     16664     16714     16716
     16664     16714     16717     16665     16664     16666     16665     16664     16714
     16666     16664     16714     16667     16670     16671     16667     16670     16672
     16667     16670     16673     16668     16667     16669     16668     16667     16670
     16669     16667     16670     16670     16673     16674     16670     16673     16675
     16671     16670     16672     16671     16670     16673     16672     16670     16673
     16673     16675     16676     16673     16675     16677     16674     16673     16675
     16675     16677     16678     16675     16677     16679     16675     16677     16680
     16676     16675     16677     16677     16680     16681     16677     16680     16682
     16678     16677     16679     16678     16677     16680     16679     16677     16680
     16680     16682     16683     16680     16682     16684     16681     16680     16682
     16682     16684     16685     16682     16684     16686     16682     16684     16687
     16683     16682     16684     16684     16687     16688     16684     16687     16689
     16685     16684     16686     16685     16684     16687     16686     16684     16687
     16687     16689     16690     16687     16689     16691     16688     16687     16689
     16689     16691     16692     16689     16691     16693     16689     16691     16694
     16690     16689     16691     16691     16694     16695     16691     16694     16696
     16692     16691     16693     16692     16691     16694     16693     16691     16694
     16694     16696     16697     16694     16696     16698     16695     16694     16696
     16696     16698     16699     16696     16698     16700     16696     16698     16701
     16697     16696     16698     16698     16701     16702     16698     16701     16703
     16698     16701     16704     16699     16698     16700     16699     16698     16701
     16700     16698     16701     16701     16704     16705     16701     16704     16706
     16701     16704     16707     16702     16701     16703     16702     16701     16704
     16703     16701     16704     16704     16707     16708     16704     16707     16709
     16704     16707     16710     16705     16704     16706     16705     16704     16707
     16706     16704     16707     16707     16710     16711     16707     16710     16712
     16707     16710     16713     16708     16707     16709     16708     16707     16710
     16709     16707     16710     16711     16710     16712     16711     16710     16713
     16712     16710     16713     16714     16717     16718     16714     16717     16719
     16714     16717     16720     16715     16714     16716     16715     16714     16717
     16716     16714     16717     16717     16720     16721     16717     16720     16722
     16717     16720     16723     16718     16717     16719     16718     16717     16720
     16719     16717     16720     16720     16723     16724     16720     16723     16725
     16720     16723     16726     16721     16720     16722     16721     16720     16723
     16722     16720     16723     16723     16726     16727     16723     16726     16728
     16723     16726     16729     16724     16723     16725     16724     16723     16726
     16725     16723     16726     16726     16729     16730     16726     16729     16731
     16726     16729     16732     16727     16726     16728     16727     16726     16729
     16728     16726     16729     16729     16732     16733     16729     16732     16734
     16729     16732     16735     16730     16729     16731     16730     16729     16732
     16731     16729     16732     16732     16735     16736     16732     16735     16737
     16732     16735     16738     16733     16732     16734     16733     16732     16735
     16734     16732     16735     16735     16738     16739     16735     16738     16740
     16735     16738     16741     16736     16735     16737     16736     16735     16738
     16737     16735     16738     16738     16741     16742     16738     16741     16743
     16738     16741     16744     16739     16738     16740     16739     16738     16741
     16740     16738     16741     16741     16744     16745     16741     16744     16746
     16741     16744     16747     16742     16741     16743     16742     16741     16744
     16743     16741     16744     16744     16747     16748     16744     16747     16749
     16744     16747     16750     16745     16744     16746     16745     16744     16747
     16746     16744     16747     16747     16750     16751     16747     16750     16752
     16747     16750     16753     16748     16747     16749     16748     16747     16750
     16749     16747     16750     16750     16753     16754     16750     16753     16755
     16750     16753     16756     16751     16750     16752     16751     16750     16753
     16752     16750     16753     16753     16756     16757     16753     16756     16758
     16753     16756     16759     16754     16753     16755     16754     16753     16756
     16755     16753     16756     16756     16759     16760     16756     16759     16761
     16756     16759     16762     16757     16756     16758     16757     16756     16759
     16758     16756     16759     16760     16759     16761     16760     16759     16762
     16761     16759     16762     16763     16765     16766     16763     16767     16768
     16763     16767     16769     16763     16767     16770     16763     16809     16806
     16763     16809     16810     16763     16809     16811     16764     16763     16765
     16764     16763     16767     16764     16763     16809     16765     16763     16767
     16765     16763     16809     16767     16763     16809     16767     16770     16771
     16767     16770     16801     16768     16767     16769     16768     16767     16770
     16769     16767     16770     16770     16771     16772     16770     16771     16773
     16770     16801     16799     16770     16801     16802     16770     16801     16806
     16771     16770     16801     16771     16773     16774     16771     16773     16775
     16771     16773     16776     16772     16771     16773     16773     16776     16777
     16773     16776     16778     16773     16776     16799     16774     16773     16775
     16774     16773     16776     16775     16773     16776     16776     16778     16779
     16776     16778     16780     16776     16778     16788     16776     16799     16796
     16776     16799     16800     16776     16799     16801     16777     16776     16778
     16777     16776     16799     16778     16776     16799     16778     16780     16781
     16778     16780     16782     16778     16780     16783     16778     16788     16786
     16778     16788     16789     16778     16788     16793     16779     16778     16780
     16779     16778     16788     16780     16778     16788     16780     16783     16784
     16780     16783     16785     16780     16783     16786     16781     16780     16782
     16781     16780     16783     16782     16780     16783     16783     16786     16787
     16783     16786     16788     16783     16786     16812     16784     16783     16785
     16784     16783     16786     16785     16783     16786     16786     16788     16789
     16786     16788     16793     16786     16812     16813     16786     16812     16814
     16786     16812     16818     16787     16786     16788     16787     16786     16812
     16788     16786     16812     16788     16789     16790     16788     16789     16791
     16788     16789     16792     16788     16793     16794     16788     16793     16795
     16788     16793     16796     16789     16788     16793     16790     16789     16791
     16790     16789     16792     16791     16789     16792     16793     16796     16797
     16793     16796     16798     16793     16796     16799     16794     16793     16795
     16794     16793     16796     16795     16793     16796     16796     16799     16800
     16796     16799     16801     16797     16796     16798     16797     16796     16799
     16798     16796     16799     16799     16801     16802     16799     16801     16806
     16800     16799     16801     16801     16802     16803     16801     16802     16804
     16801     16802     16805     16801     16806     16807     16801     16806     16808
     16801     16806     16809     16802     16801     16806     16803     16802     16804
     16803     16802     16805     16804     16802     16805     16806     16809     16810
     16806     16809     16811     16807     16806     16808     16807     16806     16809
     16808     16806     16809     16810     16809     16811     16812     16814     16815
     16812     16814     16816     16812     16814     16817     16812     16818     16819
     16812     16818     16820     16812     16818     16821     16813     16812     16814
     16813     16812     16818     16814     16812     16818     16815     16814     16816
     16815     16814     16817     16816     16814     16817     16818     16821     16822
     16818     16821     16823     16818     16821     16824     16819     16818     16820
     16819     16818     16821     16820     16818     16821     16821     16824     16825
     16821     16824     16826     16821     16824     16827     16822     16821     16823
     16822     16821     16824     16823     16821     16824     16824     16827     16828
     16824     16827     16829     16824     16827     16833     16825     16824     16826
     16825     16824     16827     16826     16824     16827     16827     16829     16830
     16827     16829     16831     16827     16829     16832     16827     16833     16834
     16827     16833     16835     16827     16833     16836     16828     16827     16829
     16828     16827     16833     16829     16827     16833     16830     16829     16831
     16830     16829     16832     16831     16829     16832     16834     16833     16835
     16834     16833     16836     16835     16833     16836     16837     16839     16840
     16837     16841     16842     16837     16841     16843     16837     16841     16844
     16837     16883     16880     16837     16883     16884     16837     16883     16885
     16838     16837     16839     16838     16837     16841     16838     16837     16883
     16839     16837     16841     16839     16837     16883     16841     16837     16883
     16841     16844     16845     16841     16844     16875     16842     16841     16843
     16842     16841     16844     16843     16841     16844     16844     16845     16846
     16844     16845     16847     16844     16875     16873     16844     16875     16876
     16844     16875     16880     16845     16844     16875     16845     16847     16848
     16845     16847     16849     16845     16847     16850     16846     16845     16847
     16847     16850     16851     16847     16850     16852     16847     16850     16873
     16848     16847     16849     16848     16847     16850     16849     16847     16850
     16850     16852     16853     16850     16852     16854     16850     16852     16862
     16850     16873     16870     16850     16873     16874     16850     16873     16875
     16851     16850     16852     16851     16850     16873     16852     16850     16873
     16852     16854     16855     16852     16854     16856     16852     16854     16857
     16852     16862     16860     16852     16862     16863     16852     16862     16867
     16853     16852     16854     16853     16852     16862     16854     16852     16862
     16854     16857     16858     16854     16857     16859     16854     16857     16860
     16855     16854     16856     16855     16854     16857     16856     16854     16857
     16857     16860     16861     16857     16860     16862     16857     16860     16886
     16858     16857     16859     16858     16857     16860     16859     16857     16860
     16860     16862     16863     16860     16862     16867     16860     16886     16887
     16860     16886     16888     16860     16886     16892     16861     16860     16862
     16861     16860     16886     16862     16860     16886     16862     16863     16864
     16862     16863     16865     16862     16863     16866     16862     16867     16868
     16862     16867     16869     16862     16867     16870     16863     16862     16867
     16864     16863     16865     16864     16863     16866     16865     16863     16866
     16867     16870     16871     16867     16870     16872     16867     16870     16873
     16868     16867     16869     16868     16867     16870     16869     16867     16870
     16870     16873     16874     16870     16873     16875     16871     16870     16872
     16871     16870     16873     16872     16870     16873     16873     16875     16876
     16873     16875     16880     16874     16873     16875     16875     16876     16877
     16875     16876     16878     16875     16876     16879     16875     16880     16881
     16875     16880     16882     16875     16880     16883     16876     16875     16880
     16877     16876     16878     16877     16876     16879     16878     16876     16879
     16880     16883     16884     16880     16883     16885     16881     16880     16882
     16881     16880     16883     16882     16880     16883     16884     16883     16885
     16886     16888     16889     16886     16888     16890     16886     16888     16891
     16886     16892     16893     16886     16892     16894     16886     16892     16895
     16887     16886     16888     16887     16886     16892     16888     16886     16892
     16889     16888     16890     16889     16888     16891     16890     16888     16891
     16892     16895     16896     16892     16895     16897     16892     16895     16898
     16893     16892     16894     16893     16892     16895     16894     16892     16895
     16895     16898     16899     16895     16898     16900     16895     16898     16901
     16896     16895     16897     16896     16895     16898     16897     16895     16898
     16898     16901     16902     16898     16901     16903     16898     16901     16907
     16899     16898     16900     16899     16898     16901     16900     16898     16901
     16901     16903     16904     16901     16903     16905     16901     16903     16906
     16901     16907     16908     16901     16907     16909     16901     16907     16910
     16902     16901     16903     16902     16901     16907     16903     16901     16907
     16904     16903     16905     16904     16903     16906     16905     16903     16906
     16908     16907     16909     16908     16907     16910     16909     16907     16910
     16911     16913     16914     16911     16915     16916     16911     16915     16917
     16911     16915     16918     16911     16957     16954     16911     16957     16958
     16911     16957     16959     16912     16911     16913     16912     16911     16915
     16912     16911     16957     16913     16911     16915     16913     16911     16957
     16915     16911     16957     16915     16918     16919     16915     16918     16949
     16916     16915     16917     16916     16915     16918     16917     16915     16918
     16918     16919     16920     16918     16919     16921     16918     16949     16947
     16918     16949     16950     16918     16949     16954     16919     16918     16949
     16919     16921     16922     16919     16921     16923     16919     16921     16924
     16920     16919     16921     16921     16924     16925     16921     16924     16926
     16921     16924     16947     16922     16921     16923     16922     16921     16924
     16923     16921     16924     16924     16926     16927     16924     16926     16928
     16924     16926     16936     16924     16947     16944     16924     16947     16948
     16924     16947     16949     16925     16924     16926     16925     16924     16947
     16926     16924     16947     16926     16928     16929     16926     16928     16930
     16926     16928     16931     16926     16936     16934     16926     16936     16937
     16926     16936     16941     16927     16926     16928     16927     16926     16936
     16928     16926     16936     16928     16931     16932     16928     16931     16933
     16928     16931     16934     16929     16928     16930     16929     16928     16931
     16930     16928     16931     16931     16934     16935     16931     16934     16936
     16931     16934     16960     16932     16931     16933     16932     16931     16934
     16933     16931     16934     16934     16936     16937     16934     16936     16941
     16934     16960     16961     16934     16960     16962     16934     16960     16966
     16935     16934     16936     16935     16934     16960     16936     16934     16960
     16936     16937     16938     16936     16937     16939     16936     16937     16940
     16936     16941     16942     16936     16941     16943     16936     16941     16944
     16937     16936     16941     16938     16937     16939     16938     16937     16940
     16939     16937     16940     16941     16944     16945     16941     16944     16946
     16941     16944     16947     16942     16941     16943     16942     16941     16944
     16943     16941     16944     16944     16947     16948     16944     16947     16949
     16945     16944     16946     16945     16944     16947     16946     16944     16947
     16947     16949     16950     16947     16949     16954     16948     16947     16949
     16949     16950     16951     16949     16950     16952     16949     16950     16953
     16949     16954     16955     16949     16954     16956     16949     16954     16957
     16950     16949     16954     16951     16950     16952     16951     16950     16953
     16952     16950     16953     16954     16957     16958     16954     16957     16959
     16955     16954     16956     16955     16954     16957     16956     16954     16957
     16958     16957     16959     16960     16962     16963     16960     16962     16964
     16960     16962     16965     16960     16966     16967     16960     16966     16968
     16960     16966     16969     16961     16960     16962     16961     16960     16966
     16962     16960     16966     16963     16962     16964     16963     16962     16965
     16964     16962     16965     16966     16969     16970     16966     16969     16971
     16966     16969     16972     16967     16966     16968     16967     16966     16969
     16968     16966     16969     16969     16972     16973     16969     16972     16974
     16969     16972     16975     16970     16969     16971     16970     16969     16972
     16971     16969     16972     16972     16975     16976     16972     16975     16977
     16972     16975     16981     16973     16972     16974     16973     16972     16975
     16974     16972     16975     16975     16977     16978     16975     16977     16979
     16975     16977     16980     16975     16981     16982     16975     16981     16983
     16975     16981     16984     16976     16975     16977     16976     16975     16981
     16977     16975     16981     16978     16977     16979     16978     16977     16980
     16979     16977     16980     16982     16981     16983     16982     16981     16984
     16983     16981     16984     16985     16989     16990     16985     16989     16991
     16985     16989     16992     16986     16985     16987     16986     16985     16988
     16986     16985     16989     16987     16985     16988     16987     16985     16989
     16988     16985     16989     16989     16992     16993     16989     16992     16994
     16989     16992     16998     16990     16989     16991     16990     16989     16992
     16991     16989     16992     16992     16998     16995     16993     16992     16994
     16993     16992     16998     16994     16992     16998     16995     16999     17000
     16996     16995     16997     16996     16995     16998     16996     16995     16999
     16997     16995     16998     16997     16995     16999     16998     16995     16999
     16999     17000     17001     16999     17000     17002     16999     17000     17003
     17000     17003     17004     17000     17003     17005     17000     17003     17011
     17001     17000     17002     17001     17000     17003     17002     17000     17003
     17003     17005     17006     17003     17011     17012     17003     17011     17013
     17003     17011     17014     17004     17003     17005     17004     17003     17011
     17005     17003     17011     17005     17006     17007     17005     17006     17008
     17006     17008     17009     17006     17008     17010     17006     17008     17020
     17007     17006     17008     17008     17020     17021     17008     17020     17022
     17008     17020     17023     17009     17008     17010     17009     17008     17020
     17010     17008     17020     17011     17014     17015     17012     17011     17013
     17012     17011     17014     17013     17011     17014     17014     17015     17016
     17014     17015     17017     17015     17017     17018     17015     17017     17019
     17015     17017     17067     17016     17015     17017     17017     17067     17068
     17017     17067     17069     17017     17067     17070     17018     17017     17019
     17018     17017     17067     17019     17017     17067     17020     17023     17024
     17020     17023     17025     17020     17023     17026     17021     17020     17022
     17021     17020     17023     17022     17020     17023     17023     17026     17027
     17023     17026     17028     17023     17026     17029     17024     17023     17025
     17024     17023     17026     17025     17023     17026     17026     17029     17030
     17026     17029     17031     17026     17029     17032     17027     17026     17028
     17027     17026     17029     17028     17026     17029     17029     17032     17033
     17029     17032     17034     17029     17032     17035     17030     17029     17031
     17030     17029     17032     17031     17029     17032     17032     17035     17036
     17032     17035     17037     17032     17035     17038     17033     17032     17034
     17033     17032     17035     17034     17032     17035     17035     17038     17039
     17035     17038     17040     17036     17035     17037     17036     17035     17038
     17037     17035     17038     17038     17040     17041     17038     17040     17042
     17039     17038     17040     17040     17042     17043     17040     17042     17044
     17040     17042     17045     17041     17040     17042     17042     17045     17046
     17042     17045     17047     17042     17045     17048     17043     17042     17044
     17043     17042     17045     17044     17042     17045     17045     17048     17049
     17045     17048     17050     17045     17048     17051     17046     17045     17047
     17046     17045     17048     17047     17045     17048     17048     17051     17052
     17048     17051     17053     17048     17051     17054     17049     17048     17050
     17049     17048     17051     17050     17048     17051     17051     17054     17055
     17051     17054     17056     17051     17054     17057     17052     17051     17053
     17052     17051     17054     17053     17051     17054     17054     17057     17058
     17054     17057     17059     17054     17057     17060     17055     17054     17056
     17055     17054     17057     17056     17054     17057     17057     17060     17061
     17057     17060     17062     17057     17060     17063     17058     17057     17059
     17058     17057     17060     17059     17057     17060     17060     17063     17064
     17060     17063     17065     17060     17063     17066     17061     17060     17062
     17061     17060     17063     17062     17060     17063     17064     17063     17065
     17064     17063     17066     17065     17063     17066     17067     17070     17071
     17067     17070     17072     17067     17070     17073     17068     17067     17069
     17068     17067     17070     17069     17067     17070     17070     17073     17074
     17070     17073     17075     17070     17073     17076     17071     17070     17072
     17071     17070     17073     17072     17070     17073     17073     17076     17077
     17073     17076     17078     17073     17076     17079     17074     17073     17075
     17074     17073     17076     17075     17073     17076     17076     17079     17080
     17076     17079     17081     17076     17079     17082     17077     17076     17078
     17077     17076     17079     17078     17076     17079     17079     17082     17083
     17079     17082     17084     17079     17082     17085     17080     17079     17081
     17080     17079     17082     17081     17079     17082     17082     17085     17086
     17082     17085     17087     17082     17085     17088     17083     17082     17084
     17083     17082     17085     17084     17082     17085     17085     17088     17089
     17085     17088     17090     17085     17088     17091     17086     17085     17087
     17086     17085     17088     17087     17085     17088     17088     17091     17092
     17088     17091     17093     17088     17091     17094     17089     17088     17090
     17089     17088     17091     17090     17088     17091     17091     17094     17095
     17091     17094     17096     17091     17094     17097     17092     17091     17093
     17092     17091     17094     17093     17091     17094     17094     17097     17098
     17094     17097     17099     17094     17097     17100     17095     17094     17096
     17095     17094     17097     17096     17094     17097     17097     17100     17101
     17097     17100     17102     17097     17100     17103     17098     17097     17099
     17098     17097     17100     17099     17097     17100     17100     17103     17104
     17100     17103     17105     17100     17103     17106     17101     17100     17102
     17101     17100     17103     17102     17100     17103     17103     17106     17107
     17103     17106     17108     17103     17106     17109     17104     17103     17105
     17104     17103     17106     17105     17103     17106     17106     17109     17110
     17106     17109     17111     17106     17109     17112     17107     17106     17108
     17107     17106     17109     17108     17106     17109     17109     17112     17113
     17109     17112     17114     17109     17112     17115     17110     17109     17111
     17110     17109     17112     17111     17109     17112     17113     17112     17114
     17113     17112     17115     17114     17112     17115     17116     17117     17118
     17116     17117     17119     17116     17117     17120     17116     17121     17122
     17116     17121     17123     17116     17121     17124     17116     17125     17126
     17116     17125     17127     17116     17125     17128     17116     17129     17130
     17116     17129     17131     17116     17129     17132     17117     17116     17121
     17117     17116     17125     17117     17116     17129     17118     17117     17119
     17118     17117     17120     17119     17117     17120     17121     17116     17125
     17121     17116     17129     17122     17121     17123     17122     17121     17124
     17123     17121     17124     17125     17116     17129     17126     17125     17127
     17126     17125     17128     17127     17125     17128     17129     17132     17133
     17129     17132     17134     17129     17132     17138     17130     17129     17131
     17130     17129     17132     17131     17129     17132     17132     17138     17135
     17133     17132     17134     17133     17132     17138     17134     17132     17138
     17135     17139     17140     17136     17135     17137     17136     17135     17138
     17136     17135     17139     17137     17135     17138     17137     17135     17139
     17138     17135     17139     17139     17140     17141     17139     17140     17142
     17139     17140     17143     17140     17143     17144     17140     17143     17145
     17140     17143     17151     17141     17140     17142     17141     17140     17143
     17142     17140     17143     17143     17145     17146     17143     17151     17152
     17143     17151     17153     17143     17151     17154     17144     17143     17145
     17144     17143     17151     17145     17143     17151     17145     17146     17147
     17145     17146     17148     17146     17148     17149     17146     17148     17150
     17146     17148     17160     17147     17146     17148     17148     17160     17161
     17148     17160     17162     17148     17160     17163     17149     17148     17150
     17149     17148     17160     17150     17148     17160     17151     17154     17155
     17152     17151     17153     17152     17151     17154     17153     17151     17154
     17154     17155     17156     17154     17155     17157     17155     17157     17158
     17155     17157     17159     17155     17157     17205     17156     17155     17157
     17157     17205     17206     17157     17205     17207     17157     17205     17208
     17158     17157     17159     17158     17157     17205     17159     17157     17205
     17160     17163     17164     17160     17163     17165     17160     17163     17166
     17161     17160     17162     17161     17160     17163     17162     17160     17163
     17163     17166     17167     17163     17166     17168     17163     17166     17169
     17164     17163     17165     17164     17163     17166     17165     17163     17166
     17166     17169     17170     17166     17169     17171     17166     17169     17172
     17167     17166     17168     17167     17166     17169     17168     17166     17169
     17169     17172     17173     17169     17172     17174     17169     17172     17175
     17170     17169     17171     17170     17169     17172     17171     17169     17172
     17172     17175     17176     17172     17175     17177     17172     17175     17178
     17173     17172     17174     17173     17172     17175     17174     17172     17175
     17175     17178     17179     17175     17178     17180     17176     17175     17177
     17176     17175     17178     17177     17175     17178     17178     17180     17181
     17178     17180     17182     17179     17178     17180     17180     17182     17183
     17180     17182     17184     17180     17182     17185     17181     17180     17182
     17182     17185     17186     17182     17185     17187     17183     17182     17184
     17183     17182     17185     17184     17182     17185     17185     17187     17188
     17185     17187     17189     17186     17185     17187     17187     17189     17190
     17187     17189     17191     17187     17189     17192     17188     17187     17189
     17189     17192     17193     17189     17192     17194     17189     17192     17195
     17190     17189     17191     17190     17189     17192     17191     17189     17192
     17192     17195     17196     17192     17195     17197     17192     17195     17198
     17193     17192     17194     17193     17192     17195     17194     17192     17195
     17195     17198     17199     17195     17198     17200     17195     17198     17201
     17196     17195     17197     17196     17195     17198     17197     17195     17198
     17198     17201     17202     17198     17201     17203     17198     17201     17204
     17199     17198     17200     17199     17198     17201     17200     17198     17201
     17202     17201     17203     17202     17201     17204     17203     17201     17204
     17205     17208     17209     17205     17208     17210     17205     17208     17211
     17206     17205     17207     17206     17205     17208     17207     17205     17208
     17208     17211     17212     17208     17211     17213     17208     17211     17214
     17209     17208     17210     17209     17208     17211     17210     17208     17211
     17211     17214     17215     17211     17214     17216     17211     17214     17217
     17212     17211     17213     17212     17211     17214     17213     17211     17214
     17214     17217     17218     17214     17217     17219     17214     17217     17220
     17215     17214     17216     17215     17214     17217     17216     17214     17217
     17217     17220     17221     17217     17220     17222     17217     17220     17223
     17218     17217     17219     17218     17217     17220     17219     17217     17220
     17220     17223     17224     17220     17223     17225     17220     17223     17226
     17221     17220     17222     17221     17220     17223     17222     17220     17223
     17223     17226     17227     17223     17226     17228     17223     17226     17229
     17224     17223     17225     17224     17223     17226     17225     17223     17226
     17226     17229     17230     17226     17229     17231     17226     17229     17232
     17227     17226     17228     17227     17226     17229     17228     17226     17229
     17229     17232     17233     17229     17232     17234     17229     17232     17235
     17230     17229     17231     17230     17229     17232     17231     17229     17232
     17232     17235     17236     17232     17235     17237     17232     17235     17238
     17233     17232     17234     17233     17232     17235     17234     17232     17235
     17235     17238     17239     17235     17238     17240     17235     17238     17241
     17236     17235     17237     17236     17235     17238     17237     17235     17238
     17238     17241     17242     17238     17241     17243     17238     17241     17244
     17239     17238     17240     17239     17238     17241     17240     17238     17241
     17241     17244     17245     17241     17244     17246     17241     17244     17247
     17242     17241     17243     17242     17241     17244     17243     17241     17244
     17244     17247     17248     17244     17247     17249     17244     17247     17250
     17245     17244     17246     17245     17244     17247     17246     17244     17247
     17247     17250     17251     17247     17250     17252     17247     17250     17253
     17248     17247     17249     17248     17247     17250     17249     17247     17250
     17251     17250     17252     17251     17250     17253     17252     17250     17253
     17254     17256     17257     17254     17258     17259     17254     17258     17260
     17254     17258     17261     17254     17300     17297     17254     17300     17301
     17254     17300     17302     17255     17254     17256     17255     17254     17258
     17255     17254     17300     17256     17254     17258     17256     17254     17300
     17258     17254     17300     17258     17261     17262     17258     17261     17292
     17259     17258     17260     17259     17258     17261     17260     17258     17261
     17261     17262     17263     17261     17262     17264     17261     17292     17290
     17261     17292     17293     17261     17292     17297     17262     17261     17292
     17262     17264     17265     17262     17264     17266     17262     17264     17267
     17263     17262     17264     17264     17267     17268     17264     17267     17269
     17264     17267     17290     17265     17264     17266     17265     17264     17267
     17266     17264     17267     17267     17269     17270     17267     17269     17271
     17267     17269     17279     17267     17290     17287     17267     17290     17291
     17267     17290     17292     17268     17267     17269     17268     17267     17290
     17269     17267     17290     17269     17271     17272     17269     17271     17273
     17269     17271     17274     17269     17279     17277     17269     17279     17280
     17269     17279     17284     17270     17269     17271     17270     17269     17279
     17271     17269     17279     17271     17274     17275     17271     17274     17276
     17271     17274     17277     17272     17271     17273     17272     17271     17274
     17273     17271     17274     17274     17277     17278     17274     17277     17279
     17274     17277     17303     17275     17274     17276     17275     17274     17277
     17276     17274     17277     17277     17279     17280     17277     17279     17284
     17277     17303     17304     17277     17303     17305     17277     17303     17309
     17278     17277     17279     17278     17277     17303     17279     17277     17303
     17279     17280     17281     17279     17280     17282     17279     17280     17283
     17279     17284     17285     17279     17284     17286     17279     17284     17287
     17280     17279     17284     17281     17280     17282     17281     17280     17283
     17282     17280     17283     17284     17287     17288     17284     17287     17289
     17284     17287     17290     17285     17284     17286     17285     17284     17287
     17286     17284     17287     17287     17290     17291     17287     17290     17292
     17288     17287     17289     17288     17287     17290     17289     17287     17290
     17290     17292     17293     17290     17292     17297     17291     17290     17292
     17292     17293     17294     17292     17293     17295     17292     17293     17296
     17292     17297     17298     17292     17297     17299     17292     17297     17300
     17293     17292     17297     17294     17293     17295     17294     17293     17296
     17295     17293     17296     17297     17300     17301     17297     17300     17302
     17298     17297     17299     17298     17297     17300     17299     17297     17300
     17301     17300     17302     17303     17305     17306     17303     17305     17307
     17303     17305     17308     17303     17309     17310     17303     17309     17311
     17303     17309     17312     17304     17303     17305     17304     17303     17309
     17305     17303     17309     17306     17305     17307     17306     17305     17308
     17307     17305     17308     17309     17312     17313     17309     17312     17314
     17309     17312     17315     17310     17309     17311     17310     17309     17312
     17311     17309     17312     17312     17315     17316     17312     17315     17317
     17312     17315     17318     17313     17312     17314     17313     17312     17315
     17314     17312     17315     17315     17318     17319     17315     17318     17320
     17315     17318     17324     17316     17315     17317     17316     17315     17318
     17317     17315     17318     17318     17320     17321     17318     17320     17322
     17318     17320     17323     17318     17324     17325     17318     17324     17326
     17318     17324     17327     17319     17318     17320     17319     17318     17324
     17320     17318     17324     17321     17320     17322     17321     17320     17323
     17322     17320     17323     17325     17324     17326     17325     17324     17327
     17326     17324     17327     17328     17332     17333     17328     17332     17334
     17328     17332     17335     17329     17328     17330     17329     17328     17331
     17329     17328     17332     17330     17328     17331     17330     17328     17332
     17331     17328     17332     17332     17335     17336     17332     17335     17337
     17332     17335     17341     17333     17332     17334     17333     17332     17335
     17334     17332     17335     17335     17341     17338     17336     17335     17337
     17336     17335     17341     17337     17335     17341     17338     17342     17343
     17339     17338     17340     17339     17338     17341     17339     17338     17342
     17340     17338     17341     17340     17338     17342     17341     17338     17342
     17342     17343     17344     17342     17343     17345     17342     17343     17346
     17343     17346     17347     17343     17346     17348     17343     17346     17354
     17344     17343     17345     17344     17343     17346     17345     17343     17346
     17346     17348     17349     17346     17354     17355     17346     17354     17356
     17346     17354     17357     17347     17346     17348     17347     17346     17354
     17348     17346     17354     17348     17349     17350     17348     17349     17351
     17349     17351     17352     17349     17351     17353     17349     17351     17363
     17350     17349     17351     17351     17363     17364     17351     17363     17365
     17351     17363     17366     17352     17351     17353     17352     17351     17363
     17353     17351     17363     17354     17357     17358     17355     17354     17356
     17355     17354     17357     17356     17354     17357     17357     17358     17359
     17357     17358     17360     17358     17360     17361     17358     17360     17362
     17358     17360     17410     17359     17358     17360     17360     17410     17411
     17360     17410     17412     17360     17410     17413     17361     17360     17362
     17361     17360     17410     17362     17360     17410     17363     17366     17367
     17363     17366     17368     17363     17366     17369     17364     17363     17365
     17364     17363     17366     17365     17363     17366     17366     17369     17370
     17366     17369     17371     17367     17366     17368     17367     17366     17369
     17368     17366     17369     17369     17371     17372     17369     17371     17373
     17370     17369     17371     17371     17373     17374     17371     17373     17375
     17371     17373     17376     17372     17371     17373     17373     17376     17377
     17373     17376     17378     17374     17373     17375     17374     17373     17376
     17375     17373     17376     17376     17378     17379     17376     17378     17380
     17377     17376     17378     17378     17380     17381     17378     17380     17382
     17378     17380     17383     17379     17378     17380     17380     17383     17384
     17380     17383     17385     17381     17380     17382     17381     17380     17383
     17382     17380     17383     17383     17385     17386     17383     17385     17387
     17384     17383     17385     17385     17387     17388     17385     17387     17389
     17385     17387     17390     17386     17385     17387     17387     17390     17391
     17387     17390     17392     17388     17387     17389     17388     17387     17390
     17389     17387     17390     17390     17392     17393     17390     17392     17394
     17391     17390     17392     17392     17394     17395     17392     17394     17396
     17392     17394     17397     17393     17392     17394     17394     17397     17398
     17394     17397     17399     17394     17397     17400     17395     17394     17396
     17395     17394     17397     17396     17394     17397     17397     17400     17401
     17397     17400     17402     17397     17400     17403     17398     17397     17399
     17398     17397     17400     17399     17397     17400     17400     17403     17404
     17400     17403     17405     17400     17403     17406     17401     17400     17402
     17401     17400     17403     17402     17400     17403     17403     17406     17407
     17403     17406     17408     17403     17406     17409     17404     17403     17405
     17404     17403     17406     17405     17403     17406     17407     17406     17408
     17407     17406     17409     17408     17406     17409     17410     17413     17414
     17410     17413     17415     17410     17413     17416     17411     17410     17412
     17411     17410     17413     17412     17410     17413     17413     17416     17417
     17413     17416     17418     17413     17416     17419     17414     17413     17415
     17414     17413     17416     17415     17413     17416     17416     17419     17420
     17416     17419     17421     17416     17419     17422     17417     17416     17418
     17417     17416     17419     17418     17416     17419     17419     17422     17423
     17419     17422     17424     17419     17422     17425     17420     17419     17421
     17420     17419     17422     17421     17419     17422     17422     17425     17426
     17422     17425     17427     17422     17425     17428     17423     17422     17424
     17423     17422     17425     17424     17422     17425     17425     17428     17429
     17425     17428     17430     17425     17428     17431     17426     17425     17427
     17426     17425     17428     17427     17425     17428     17428     17431     17432
     17428     17431     17433     17428     17431     17434     17429     17428     17430
     17429     17428     17431     17430     17428     17431     17431     17434     17435
     17431     17434     17436     17431     17434     17437     17432     17431     17433
     17432     17431     17434     17433     17431     17434     17434     17437     17438
     17434     17437     17439     17434     17437     17440     17435     17434     17436
     17435     17434     17437     17436     17434     17437     17437     17440     17441
     17437     17440     17442     17437     17440     17443     17438     17437     17439
     17438     17437     17440     17439     17437     17440     17440     17443     17444
     17440     17443     17445     17440     17443     17446     17441     17440     17442
     17441     17440     17443     17442     17440     17443     17443     17446     17447
     17443     17446     17448     17443     17446     17449     17444     17443     17445
     17444     17443     17446     17445     17443     17446     17446     17449     17450
     17446     17449     17451     17446     17449     17452     17447     17446     17448
     17447     17446     17449     17448     17446     17449     17449     17452     17453
     17449     17452     17454     17449     17452     17455     17450     17449     17451
     17450     17449     17452     17451     17449     17452     17452     17455     17456
     17452     17455     17457     17452     17455     17458     17453     17452     17454
     17453     17452     17455     17454     17452     17455     17456     17455     17457
     17456     17455     17458     17457     17455     17458     17459     17461     17462
     17459     17463     17464     17459     17463     17465     17459     17463     17466
     17459     17505     17502     17459     17505     17506     17459     17505     17507
     17460     17459     17461     17460     17459     17463     17460     17459     17505
     17461     17459     17463     17461     17459     17505     17463     17459     17505
     17463     17466     17467     17463     17466     17497     17464     17463     17465
     17464     17463     17466     17465     17463     17466     17466     17467     17468
     17466     17467     17469     17466     17497     17495     17466     17497     17498
     17466     17497     17502     17467     17466     17497     17467     17469     17470
     17467     17469     17471     17467     17469     17472     17468     17467     17469
     17469     17472     17473     17469     17472     17474     17469     17472     17495
     17470     17469     17471     17470     17469     17472     17471     17469     17472
     17472     17474     17475     17472     17474     17476     17472     17474     17484
     17472     17495     17492     17472     17495     17496     17472     17495     17497
     17473     17472     17474     17473     17472     17495     17474     17472     17495
     17474     17476     17477     17474     17476     17478     17474     17476     17479
     17474     17484     17482     17474     17484     17485     17474     17484     17489
     17475     17474     17476     17475     17474     17484     17476     17474     17484
     17476     17479     17480     17476     17479     17481     17476     17479     17482
     17477     17476     17478     17477     17476     17479     17478     17476     17479
     17479     17482     17483     17479     17482     17484     17479     17482     17508
     17480     17479     17481     17480     17479     17482     17481     17479     17482
     17482     17484     17485     17482     17484     17489     17482     17508     17509
     17482     17508     17510     17482     17508     17514     17483     17482     17484
     17483     17482     17508     17484     17482     17508     17484     17485     17486
     17484     17485     17487     17484     17485     17488     17484     17489     17490
     17484     17489     17491     17484     17489     17492     17485     17484     17489
     17486     17485     17487     17486     17485     17488     17487     17485     17488
     17489     17492     17493     17489     17492     17494     17489     17492     17495
     17490     17489     17491     17490     17489     17492     17491     17489     17492
     17492     17495     17496     17492     17495     17497     17493     17492     17494
     17493     17492     17495     17494     17492     17495     17495     17497     17498
     17495     17497     17502     17496     17495     17497     17497     17498     17499
     17497     17498     17500     17497     17498     17501     17497     17502     17503
     17497     17502     17504     17497     17502     17505     17498     17497     17502
     17499     17498     17500     17499     17498     17501     17500     17498     17501
     17502     17505     17506     17502     17505     17507     17503     17502     17504
     17503     17502     17505     17504     17502     17505     17506     17505     17507
     17508     17510     17511     17508     17510     17512     17508     17510     17513
     17508     17514     17515     17508     17514     17516     17508     17514     17517
     17509     17508     17510     17509     17508     17514     17510     17508     17514
     17511     17510     17512     17511     17510     17513     17512     17510     17513
     17514     17517     17518     17514     17517     17519     17514     17517     17520
     17515     17514     17516     17515     17514     17517     17516     17514     17517
     17517     17520     17521     17517     17520     17522     17517     17520     17523
     17518     17517     17519     17518     17517     17520     17519     17517     17520
     17520     17523     17524     17520     17523     17525     17520     17523     17529
     17521     17520     17522     17521     17520     17523     17522     17520     17523
     17523     17525     17526     17523     17525     17527     17523     17525     17528
     17523     17529     17530     17523     17529     17531     17523     17529     17532
     17524     17523     17525     17524     17523     17529     17525     17523     17529
     17526     17525     17527     17526     17525     17528     17527     17525     17528
     17530     17529     17531     17530     17529     17532     17531     17529     17532
     17533     17537     17538     17533     17537     17539     17533     17537     17540
     17534     17533     17535     17534     17533     17536     17534     17533     17537
     17535     17533     17536     17535     17533     17537     17536     17533     17537
     17537     17540     17541     17537     17540     17542     17537     17540     17546
     17538     17537     17539     17538     17537     17540     17539     17537     17540
     17540     17546     17543     17541     17540     17542     17541     17540     17546
     17542     17540     17546     17543     17547     17548     17544     17543     17545
     17544     17543     17546     17544     17543     17547     17545     17543     17546
     17545     17543     17547     17546     17543     17547     17547     17548     17549
     17547     17548     17550     17547     17548     17551     17548     17551     17552
     17548     17551     17553     17548     17551     17559     17549     17548     17550
     17549     17548     17551     17550     17548     17551     17551     17553     17554
     17551     17559     17560     17551     17559     17561     17551     17559     17562
     17552     17551     17553     17552     17551     17559     17553     17551     17559
     17553     17554     17555     17553     17554     17556     17554     17556     17557
     17554     17556     17558     17554     17556     17568     17555     17554     17556
     17556     17568     17569     17556     17568     17570     17556     17568     17571
     17557     17556     17558     17557     17556     17568     17558     17556     17568
     17559     17562     17563     17560     17559     17561     17560     17559     17562
     17561     17559     17562     17562     17563     17564     17562     17563     17565
     17563     17565     17566     17563     17565     17567     17563     17565     17615
     17564     17563     17565     17565     17615     17616     17565     17615     17617
     17565     17615     17618     17566     17565     17567     17566     17565     17615
     17567     17565     17615     17568     17571     17572     17568     17571     17573
     17568     17571     17574     17569     17568     17570     17569     17568     17571
     17570     17568     17571     17571     17574     17575     17571     17574     17576
     17572     17571     17573     17572     17571     17574     17573     17571     17574
     17574     17576     17577     17574     17576     17578     17575     17574     17576
     17576     17578     17579     17576     17578     17580     17576     17578     17581
     17577     17576     17578     17578     17581     17582     17578     17581     17583
     17579     17578     17580     17579     17578     17581     17580     17578     17581
     17581     17583     17584     17581     17583     17585     17582     17581     17583
     17583     17585     17586     17583     17585     17587     17583     17585     17588
     17584     17583     17585     17585     17588     17589     17585     17588     17590
     17586     17585     17587     17586     17585     17588     17587     17585     17588
     17588     17590     17591     17588     17590     17592     17589     17588     17590
     17590     17592     17593     17590     17592     17594     17590     17592     17595
     17591     17590     17592     17592     17595     17596     17592     17595     17597
     17593     17592     17594     17593     17592     17595     17594     17592     17595
     17595     17597     17598     17595     17597     17599     17596     17595     17597
     17597     17599     17600     17597     17599     17601     17597     17599     17602
     17598     17597     17599     17599     17602     17603     17599     17602     17604
     17599     17602     17605     17600     17599     17601     17600     17599     17602
     17601     17599     17602     17602     17605     17606     17602     17605     17607
     17602     17605     17608     17603     17602     17604     17603     17602     17605
     17604     17602     17605     17605     17608     17609     17605     17608     17610
     17605     17608     17611     17606     17605     17607     17606     17605     17608
     17607     17605     17608     17608     17611     17612     17608     17611     17613
     17608     17611     17614     17609     17608     17610     17609     17608     17611
     17610     17608     17611     17612     17611     17613     17612     17611     17614
     17613     17611     17614     17615     17618     17619     17615     17618     17620
     17615     17618     17621     17616     17615     17617     17616     17615     17618
     17617     17615     17618     17618     17621     17622     17618     17621     17623
     17618     17621     17624     17619     17618     17620     17619     17618     17621
     17620     17618     17621     17621     17624     17625     17621     17624     17626
     17621     17624     17627     17622     17621     17623     17622     17621     17624
     17623     17621     17624     17624     17627     17628     17624     17627     17629
     17624     17627     17630     17625     17624     17626     17625     17624     17627
     17626     17624     17627     17627     17630     17631     17627     17630     17632
     17627     17630     17633     17628     17627     17629     17628     17627     17630
     17629     17627     17630     17630     17633     17634     17630     17633     17635
     17630     17633     17636     17631     17630     17632     17631     17630     17633
     17632     17630     17633     17633     17636     17637     17633     17636     17638
     17633     17636     17639     17634     17633     17635     17634     17633     17636
     17635     17633     17636     17636     17639     17640     17636     17639     17641
     17636     17639     17642     17637     17636     17638     17637     17636     17639
     17638     17636     17639     17639     17642     17643     17639     17642     17644
     17639     17642     17645     17640     17639     17641     17640     17639     17642
     17641     17639     17642     17642     17645     17646     17642     17645     17647
     17642     17645     17648     17643     17642     17644     17643     17642     17645
     17644     17642     17645     17645     17648     17649     17645     17648     17650
     17645     17648     17651     17646     17645     17647     17646     17645     17648
     17647     17645     17648     17648     17651     17652     17648     17651     17653
     17648     17651     17654     17649     17648     17650     17649     17648     17651
     17650     17648     17651     17651     17654     17655     17651     17654     17656
     17651     17654     17657     17652     17651     17653     17652     17651     17654
     17653     17651     17654     17654     17657     17658     17654     17657     17659
     17654     17657     17660     17655     17654     17656     17655     17654     17657
     17656     17654     17657     17657     17660     17661     17657     17660     17662
     17657     17660     17663     17658     17657     17659     17658     17657     17660
     17659     17657     17660     17661     17660     17662     17661     17660     17663
     17662     17660     17663     17664     17668     17669     17664     17668     17670
     17664     17668     17671     17665     17664     17666     17665     17664     17667
     17665     17664     17668     17666     17664     17667     17666     17664     17668
     17667     17664     17668     17668     17671     17672     17668     17671     17673
     17668     17671     17677     17669     17668     17670     17669     17668     17671
     17670     17668     17671     17671     17677     17674     17672     17671     17673
     17672     17671     17677     17673     17671     17677     17674     17678     17679
     17675     17674     17676     17675     17674     17677     17675     17674     17678
     17676     17674     17677     17676     17674     17678     17677     17674     17678
     17678     17679     17680     17678     17679     17681     17678     17679     17682
     17679     17682     17683     17679     17682     17684     17679     17682     17690
     17680     17679     17681     17680     17679     17682     17681     17679     17682
     17682     17684     17685     17682     17690     17691     17682     17690     17692
     17682     17690     17693     17683     17682     17684     17683     17682     17690
     17684     17682     17690     17684     17685     17686     17684     17685     17687
     17685     17687     17688     17685     17687     17689     17685     17687     17699
     17686     17685     17687     17687     17699     17700     17687     17699     17701
     17687     17699     17702     17688     17687     17689     17688     17687     17699
     17689     17687     17699     17690     17693     17694     17691     17690     17692
     17691     17690     17693     17692     17690     17693     17693     17694     17695
     17693     17694     17696     17694     17696     17697     17694     17696     17698
     17694     17696     17746     17695     17694     17696     17696     17746     17747
     17696     17746     17748     17696     17746     17749     17697     17696     17698
     17697     17696     17746     17698     17696     17746     17699     17702     17703
     17699     17702     17704     17699     17702     17705     17700     17699     17701
     17700     17699     17702     17701     17699     17702     17702     17705     17706
     17702     17705     17707     17702     17705     17708     17703     17702     17704
     17703     17702     17705     17704     17702     17705     17705     17708     17709
     17705     17708     17710     17705     17708     17711     17706     17705     17707
     17706     17705     17708     17707     17705     17708     17708     17711     17712
     17708     17711     17713     17708     17711     17714     17709     17708     17710
     17709     17708     17711     17710     17708     17711     17711     17714     17715
     17711     17714     17716     17711     17714     17717     17712     17711     17713
     17712     17711     17714     17713     17711     17714     17714     17717     17718
     17714     17717     17719     17715     17714     17716     17715     17714     17717
     17716     17714     17717     17717     17719     17720     17717     17719     17721
     17718     17717     17719     17719     17721     17722     17719     17721     17723
     17719     17721     17724     17720     17719     17721     17721     17724     17725
     17721     17724     17726     17721     17724     17727     17722     17721     17723
     17722     17721     17724     17723     17721     17724     17724     17727     17728
     17724     17727     17729     17724     17727     17730     17725     17724     17726
     17725     17724     17727     17726     17724     17727     17727     17730     17731
     17727     17730     17732     17727     17730     17733     17728     17727     17729
     17728     17727     17730     17729     17727     17730     17730     17733     17734
     17730     17733     17735     17730     17733     17736     17731     17730     17732
     17731     17730     17733     17732     17730     17733     17733     17736     17737
     17733     17736     17738     17733     17736     17739     17734     17733     17735
     17734     17733     17736     17735     17733     17736     17736     17739     17740
     17736     17739     17741     17736     17739     17742     17737     17736     17738
     17737     17736     17739     17738     17736     17739     17739     17742     17743
     17739     17742     17744     17739     17742     17745     17740     17739     17741
     17740     17739     17742     17741     17739     17742     17743     17742     17744
     17743     17742     17745     17744     17742     17745     17746     17749     17750
     17746     17749     17751     17746     17749     17752     17747     17746     17748
     17747     17746     17749     17748     17746     17749     17749     17752     17753
     17749     17752     17754     17749     17752     17755     17750     17749     17751
     17750     17749     17752     17751     17749     17752     17752     17755     17756
     17752     17755     17757     17752     17755     17758     17753     17752     17754
     17753     17752     17755     17754     17752     17755     17755     17758     17759
     17755     17758     17760     17755     17758     17761     17756     17755     17757
     17756     17755     17758     17757     17755     17758     17758     17761     17762
     17758     17761     17763     17758     17761     17764     17759     17758     17760
     17759     17758     17761     17760     17758     17761     17761     17764     17765
     17761     17764     17766     17761     17764     17767     17762     17761     17763
     17762     17761     17764     17763     17761     17764     17764     17767     17768
     17764     17767     17769     17764     17767     17770     17765     17764     17766
     17765     17764     17767     17766     17764     17767     17767     17770     17771
     17767     17770     17772     17767     17770     17773     17768     17767     17769
     17768     17767     17770     17769     17767     17770     17770     17773     17774
     17770     17773     17775     17770     17773     17776     17771     17770     17772
     17771     17770     17773     17772     17770     17773     17773     17776     17777
     17773     17776     17778     17773     17776     17779     17774     17773     17775
     17774     17773     17776     17775     17773     17776     17776     17779     17780
     17776     17779     17781     17776     17779     17782     17777     17776     17778
     17777     17776     17779     17778     17776     17779     17779     17782     17783
     17779     17782     17784     17779     17782     17785     17780     17779     17781
     17780     17779     17782     17781     17779     17782     17782     17785     17786
     17782     17785     17787     17782     17785     17788     17783     17782     17784
     17783     17782     17785     17784     17782     17785     17785     17788     17789
     17785     17788     17790     17785     17788     17791     17786     17785     17787
     17786     17785     17788     17787     17785     17788     17788     17791     17792
     17788     17791     17793     17788     17791     17794     17789     17788     17790
     17789     17788     17791     17790     17788     17791     17792     17791     17793
     17792     17791     17794     17793     17791     17794     17795     17796     17797
     17795     17796     17798     17795     17796     17811     17795     17799     17800
     17795     17799     17801     17795     17799     17802     17795     17803     17804
     17795     17803     17805     17795     17803     17806     17795     17807     17808
     17795     17807     17809     17795     17807     17810     17796     17795     17799
     17796     17795     17803     17796     17795     17807     17796     17811     17812
     17796     17811     17813     17796     17811     17817     17797     17796     17798
     17797     17796     17811     17798     17796     17811     17799     17795     17803
     17799     17795     17807     17800     17799     17801     17800     17799     17802
     17801     17799     17802     17803     17795     17807     17804     17803     17805
     17804     17803     17806     17805     17803     17806     17808     17807     17809
     17808     17807     17810     17809     17807     17810     17811     17817     17814
     17812     17811     17813     17812     17811     17817     17813     17811     17817
     17814     17818     17819     17815     17814     17816     17815     17814     17817
     17815     17814     17818     17816     17814     17817     17816     17814     17818
     17817     17814     17818     17818     17819     17820     17818     17819     17821
     17818     17819     17822     17819     17822     17823     17819     17822     17824
     17819     17822     17830     17820     17819     17821     17820     17819     17822
     17821     17819     17822     17822     17824     17825     17822     17830     17831
     17822     17830     17832     17822     17830     17833     17823     17822     17824
     17823     17822     17830     17824     17822     17830     17824     17825     17826
     17824     17825     17827     17825     17827     17828     17825     17827     17829
     17825     17827     17839     17826     17825     17827     17827     17839     17840
     17827     17839     17841     17827     17839     17842     17828     17827     17829
     17828     17827     17839     17829     17827     17839     17830     17833     17834
     17831     17830     17832     17831     17830     17833     17832     17830     17833
     17833     17834     17835     17833     17834     17836     17834     17836     17837
     17834     17836     17838     17834     17836     17886     17835     17834     17836
     17836     17886     17887     17836     17886     17888     17836     17886     17889
     17837     17836     17838     17837     17836     17886     17838     17836     17886
     17839     17842     17843     17839     17842     17844     17839     17842     17845
     17840     17839     17841     17840     17839     17842     17841     17839     17842
     17842     17845     17846     17842     17845     17847     17843     17842     17844
     17843     17842     17845     17844     17842     17845     17845     17847     17848
     17845     17847     17849     17846     17845     17847     17847     17849     17850
     17847     17849     17851     17847     17849     17852     17848     17847     17849
     17849     17852     17853     17849     17852     17854     17850     17849     17851
     17850     17849     17852     17851     17849     17852     17852     17854     17855
     17852     17854     17856     17853     17852     17854     17854     17856     17857
     17854     17856     17858     17854     17856     17859     17855     17854     17856
     17856     17859     17860     17856     17859     17861     17857     17856     17858
     17857     17856     17859     17858     17856     17859     17859     17861     17862
     17859     17861     17863     17860     17859     17861     17861     17863     17864
     17861     17863     17865     17861     17863     17866     17862     17861     17863
     17863     17866     17867     17863     17866     17868     17864     17863     17865
     17864     17863     17866     17865     17863     17866     17866     17868     17869
     17866     17868     17870     17867     17866     17868     17868     17870     17871
     17868     17870     17872     17868     17870     17873     17869     17868     17870
     17870     17873     17874     17870     17873     17875     17870     17873     17876
     17871     17870     17872     17871     17870     17873     17872     17870     17873
     17873     17876     17877     17873     17876     17878     17873     17876     17879
     17874     17873     17875     17874     17873     17876     17875     17873     17876
     17876     17879     17880     17876     17879     17881     17876     17879     17882
     17877     17876     17878     17877     17876     17879     17878     17876     17879
     17879     17882     17883     17879     17882     17884     17879     17882     17885
     17880     17879     17881     17880     17879     17882     17881     17879     17882
     17883     17882     17884     17883     17882     17885     17884     17882     17885
     17886     17889     17890     17886     17889     17891     17886     17889     17892
     17887     17886     17888     17887     17886     17889     17888     17886     17889
     17889     17892     17893     17889     17892     17894     17889     17892     17895
     17890     17889     17891     17890     17889     17892     17891     17889     17892
     17892     17895     17896     17892     17895     17897     17892     17895     17898
     17893     17892     17894     17893     17892     17895     17894     17892     17895
     17895     17898     17899     17895     17898     17900     17895     17898     17901
     17896     17895     17897     17896     17895     17898     17897     17895     17898
     17898     17901     17902     17898     17901     17903     17898     17901     17904
     17899     17898     17900     17899     17898     17901     17900     17898     17901
     17901     17904     17905     17901     17904     17906     17901     17904     17907
     17902     17901     17903     17902     17901     17904     17903     17901     17904
     17904     17907     17908     17904     17907     17909     17904     17907     17910
     17905     17904     17906     17905     17904     17907     17906     17904     17907
     17907     17910     17911     17907     17910     17912     17907     17910     17913
     17908     17907     17909     17908     17907     17910     17909     17907     17910
     17910     17913     17914     17910     17913     17915     17910     17913     17916
     17911     17910     17912     17911     17910     17913     17912     17910     17913
     17913     17916     17917     17913     17916     17918     17913     17916     17919
     17914     17913     17915     17914     17913     17916     17915     17913     17916
     17916     17919     17920     17916     17919     17921     17916     17919     17922
     17917     17916     17918     17917     17916     17919     17918     17916     17919
     17919     17922     17923     17919     17922     17924     17919     17922     17925
     17920     17919     17921     17920     17919     17922     17921     17919     17922
     17922     17925     17926     17922     17925     17927     17922     17925     17928
     17923     17922     17924     17923     17922     17925     17924     17922     17925
     17925     17928     17929     17925     17928     17930     17925     17928     17931
     17926     17925     17927     17926     17925     17928     17927     17925     17928
     17928     17931     17932     17928     17931     17933     17928     17931     17934
     17929     17928     17930     17929     17928     17931     17930     17928     17931
     17932     17931     17933     17932     17931     17934     17933     17931     17934
     17935     17936     17937     17935     17936     17938     17935     17936     17951
     17935     17939     17940     17935     17939     17941     17935     17939     17942
     17935     17943     17944     17935     17943     17945     17935     17943     17946
     17935     17947     17948     17935     17947     17949     17935     17947     17950
     17936     17935     17939     17936     17935     17943     17936     17935     17947
     17936     17951     17952     17936     17951     17953     17936     17951     17957
     17937     17936     17938     17937     17936     17951     17938     17936     17951
     17939     17935     17943     17939     17935     17947     17940     17939     17941
     17940     17939     17942     17941     17939     17942     17943     17935     17947
     17944     17943     17945     17944     17943     17946     17945     17943     17946
     17948     17947     17949     17948     17947     17950     17949     17947     17950
     17951     17957     17954     17952     17951     17953     17952     17951     17957
     17953     17951     17957     17954     17958     17959     17955     17954     17956
     17955     17954     17957     17955     17954     17958     17956     17954     17957
     17956     17954     17958     17957     17954     17958     17958     17959     17960
     17958     17959     17961     17958     17959     17962     17959     17962     17963
     17959     17962     17964     17959     17962     17970     17960     17959     17961
     17960     17959     17962     17961     17959     17962     17962     17964     17965
     17962     17970     17971     17962     17970     17972     17962     17970     17973
     17963     17962     17964     17963     17962     17970     17964     17962     17970
     17964     17965     17966     17964     17965     17967     17965     17967     17968
     17965     17967     17969     17965     17967     17979     17966     17965     17967
     17967     17979     17980     17967     17979     17981     17967     17979     17982
     17968     17967     17969     17968     17967     17979     17969     17967     17979
     17970     17973     17974     17971     17970     17972     17971     17970     17973
     17972     17970     17973     17973     17974     17975     17973     17974     17976
     17974     17976     17977     17974     17976     17978     17974     17976     18026
     17975     17974     17976     17976     18026     18027     17976     18026     18028
     17976     18026     18029     17977     17976     17978     17977     17976     18026
     17978     17976     18026     17979     17982     17983     17979     17982     17984
     17979     17982     17985     17980     17979     17981     17980     17979     17982
     17981     17979     17982     17982     17985     17986     17982     17985     17987
     17983     17982     17984     17983     17982     17985     17984     17982     17985
     17985     17987     17988     17985     17987     17989     17986     17985     17987
     17987     17989     17990     17987     17989     17991     17987     17989     17992
     17988     17987     17989     17989     17992     17993     17989     17992     17994
     17990     17989     17991     17990     17989     17992     17991     17989     17992
     17992     17994     17995     17992     17994     17996     17993     17992     17994
     17994     17996     17997     17994     17996     17998     17994     17996     17999
     17995     17994     17996     17996     17999     18000     17996     17999     18001
     17997     17996     17998     17997     17996     17999     17998     17996     17999
     17999     18001     18002     17999     18001     18003     18000     17999     18001
     18001     18003     18004     18001     18003     18005     18001     18003     18006
     18002     18001     18003     18003     18006     18007     18003     18006     18008
     18004     18003     18005     18004     18003     18006     18005     18003     18006
     18006     18008     18009     18006     18008     18010     18007     18006     18008
     18008     18010     18011     18008     18010     18012     18008     18010     18013
     18009     18008     18010     18010     18013     18014     18010     18013     18015
     18010     18013     18016     18011     18010     18012     18011     18010     18013
     18012     18010     18013     18013     18016     18017     18013     18016     18018
     18013     18016     18019     18014     18013     18015     18014     18013     18016
     18015     18013     18016     18016     18019     18020     18016     18019     18021
     18016     18019     18022     18017     18016     18018     18017     18016     18019
     18018     18016     18019     18019     18022     18023     18019     18022     18024
     18019     18022     18025     18020     18019     18021     18020     18019     18022
     18021     18019     18022     18023     18022     18024     18023     18022     18025
     18024     18022     18025     18026     18029     18030     18026     18029     18031
     18026     18029     18032     18027     18026     18028     18027     18026     18029
     18028     18026     18029     18029     18032     18033     18029     18032     18034
     18029     18032     18035     18030     18029     18031     18030     18029     18032
     18031     18029     18032     18032     18035     18036     18032     18035     18037
     18032     18035     18038     18033     18032     18034     18033     18032     18035
     18034     18032     18035     18035     18038     18039     18035     18038     18040
     18035     18038     18041     18036     18035     18037     18036     18035     18038
     18037     18035     18038     18038     18041     18042     18038     18041     18043
     18038     18041     18044     18039     18038     18040     18039     18038     18041
     18040     18038     18041     18041     18044     18045     18041     18044     18046
     18041     18044     18047     18042     18041     18043     18042     18041     18044
     18043     18041     18044     18044     18047     18048     18044     18047     18049
     18044     18047     18050     18045     18044     18046     18045     18044     18047
     18046     18044     18047     18047     18050     18051     18047     18050     18052
     18047     18050     18053     18048     18047     18049     18048     18047     18050
     18049     18047     18050     18050     18053     18054     18050     18053     18055
     18050     18053     18056     18051     18050     18052     18051     18050     18053
     18052     18050     18053     18053     18056     18057     18053     18056     18058
     18053     18056     18059     18054     18053     18055     18054     18053     18056
     18055     18053     18056     18056     18059     18060     18056     18059     18061
     18056     18059     18062     18057     18056     18058     18057     18056     18059
     18058     18056     18059     18059     18062     18063     18059     18062     18064
     18059     18062     18065     18060     18059     18061     18060     18059     18062
     18061     18059     18062     18062     18065     18066     18062     18065     18067
     18062     18065     18068     18063     18062     18064     18063     18062     18065
     18064     18062     18065     18065     18068     18069     18065     18068     18070
     18065     18068     18071     18066     18065     18067     18066     18065     18068
     18067     18065     18068     18068     18071     18072     18068     18071     18073
     18068     18071     18074     18069     18068     18070     18069     18068     18071
     18070     18068     18071     18072     18071     18073     18072     18071     18074
     18073     18071     18074     18075     18076     18077     18075     18076     18078
     18075     18076     18079     18075     18080     18081     18075     18080     18082
     18075     18080     18083     18075     18084     18085     18075     18084     18086
     18075     18084     18087     18075     18088     18089     18075     18088     18090
     18075     18088     18091     18076     18075     18080     18076     18075     18084
     18076     18075     18088     18077     18076     18078     18077     18076     18079
     18078     18076     18079     18080     18075     18084     18080     18075     18088
     18081     18080     18082     18081     18080     18083     18082     18080     18083
     18084     18075     18088     18085     18084     18086     18085     18084     18087
     18086     18084     18087     18088     18091     18092     18088     18091     18093
     18088     18091     18098     18089     18088     18090     18089     18088     18091
     18090     18088     18091     18091     18098     18094     18092     18091     18093
     18092     18091     18098     18093     18091     18098     18094     18097     18099
     18095     18094     18096     18095     18094     18097     18095     18094     18098
     18096     18094     18097     18096     18094     18098     18097     18094     18098
     18097     18099     18100     18097     18099     18101     18097     18099     18104
     18099     18104     18102     18099     18104     18105     18099     18104     18106
     18100     18099     18101     18100     18099     18104     18101     18099     18104
     18102     18104     18105     18102     18104     18106     18102     18154     18155
     18102     18154     18156     18103     18102     18104     18103     18102     18154
     18104     18102     18154     18104     18106     18107     18104     18106     18108
     18104     18106     18110     18105     18104     18106     18106     18108     18109
     18106     18110     18111     18106     18110     18112     18107     18106     18108
     18107     18106     18110     18108     18106     18110     18110     18112     18113
     18110     18112     18114     18111     18110     18112     18112     18114     18115
     18112     18114     18116     18112     18114     18117     18113     18112     18114
     18114     18117     18118     18114     18117     18119     18114     18117     18120
     18115     18114     18116     18115     18114     18117     18116     18114     18117
     18117     18120     18121     18117     18120     18122     18117     18120     18123
     18118     18117     18119     18118     18117     18120     18119     18117     18120
     18120     18123     18124     18120     18123     18125     18120     18123     18126
     18121     18120     18122     18121     18120     18123     18122     18120     18123
     18123     18126     18127     18123     18126     18128     18123     18126     18129
     18124     18123     18125     18124     18123     18126     18125     18123     18126
     18126     18129     18130     18126     18129     18131     18126     18129     18132
     18127     18126     18128     18127     18126     18129     18128     18126     18129
     18129     18132     18133     18129     18132     18134     18129     18132     18135
     18130     18129     18131     18130     18129     18132     18131     18129     18132
     18132     18135     18136     18132     18135     18137     18132     18135     18138
     18133     18132     18134     18133     18132     18135     18134     18132     18135
     18135     18138     18139     18135     18138     18140     18135     18138     18141
     18136     18135     18137     18136     18135     18138     18137     18135     18138
     18138     18141     18142     18138     18141     18143     18138     18141     18144
     18139     18138     18140     18139     18138     18141     18140     18138     18141
     18141     18144     18145     18141     18144     18146     18141     18144     18147
     18142     18141     18143     18142     18141     18144     18143     18141     18144
     18144     18147     18148     18144     18147     18149     18144     18147     18150
     18145     18144     18146     18145     18144     18147     18146     18144     18147
     18147     18150     18151     18147     18150     18152     18147     18150     18153
     18148     18147     18149     18148     18147     18150     18149     18147     18150
     18151     18150     18152     18151     18150     18153     18152     18150     18153
     18154     18156     18157     18154     18156     18158     18154     18156     18159
     18155     18154     18156     18156     18159     18160     18156     18159     18161
     18156     18159     18162     18157     18156     18158     18157     18156     18159
     18158     18156     18159     18159     18162     18163     18159     18162     18164
     18159     18162     18165     18160     18159     18161     18160     18159     18162
     18161     18159     18162     18162     18165     18166     18162     18165     18167
     18162     18165     18168     18163     18162     18164     18163     18162     18165
     18164     18162     18165     18165     18168     18169     18165     18168     18170
     18165     18168     18171     18166     18165     18167     18166     18165     18168
     18167     18165     18168     18168     18171     18172     18168     18171     18173
     18168     18171     18174     18169     18168     18170     18169     18168     18171
     18170     18168     18171     18171     18174     18175     18171     18174     18176
     18171     18174     18177     18172     18171     18173     18172     18171     18174
     18173     18171     18174     18174     18177     18178     18174     18177     18179
     18175     18174     18176     18175     18174     18177     18176     18174     18177
     18177     18179     18180     18177     18179     18181     18178     18177     18179
     18179     18181     18182     18179     18181     18183     18179     18181     18184
     18180     18179     18181     18181     18184     18185     18181     18184     18186
     18181     18184     18187     18182     18181     18183     18182     18181     18184
     18183     18181     18184     18184     18187     18188     18184     18187     18189
     18184     18187     18190     18185     18184     18186     18185     18184     18187
     18186     18184     18187     18187     18190     18191     18187     18190     18192
     18187     18190     18193     18188     18187     18189     18188     18187     18190
     18189     18187     18190     18190     18193     18194     18190     18193     18195
     18190     18193     18196     18191     18190     18192     18191     18190     18193
     18192     18190     18193     18193     18196     18197     18193     18196     18198
     18193     18196     18199     18194     18193     18195     18194     18193     18196
     18195     18193     18196     18196     18199     18200     18196     18199     18201
     18196     18199     18202     18197     18196     18198     18197     18196     18199
     18198     18196     18199     18199     18202     18203     18199     18202     18204
     18199     18202     18205     18200     18199     18201     18200     18199     18202
     18201     18199     18202     18203     18202     18204     18203     18202     18205
     18204     18202     18205     18206     18210     18211     18206     18210     18212
     18206     18210     18213     18207     18206     18208     18207     18206     18209
     18207     18206     18210     18208     18206     18209     18208     18206     18210
     18209     18206     18210     18210     18213     18214     18210     18213     18215
     18210     18213     18219     18211     18210     18212     18211     18210     18213
     18212     18210     18213     18213     18219     18216     18214     18213     18215
     18214     18213     18219     18215     18213     18219     18216     18220     18221
     18217     18216     18218     18217     18216     18219     18217     18216     18220
     18218     18216     18219     18218     18216     18220     18219     18216     18220
     18220     18221     18222     18220     18221     18223     18220     18221     18224
     18221     18224     18225     18221     18224     18226     18221     18224     18232
     18222     18221     18223     18222     18221     18224     18223     18221     18224
     18224     18226     18227     18224     18232     18233     18224     18232     18234
     18224     18232     18235     18225     18224     18226     18225     18224     18232
     18226     18224     18232     18226     18227     18228     18226     18227     18229
     18227     18229     18230     18227     18229     18231     18227     18229     18241
     18228     18227     18229     18229     18241     18242     18229     18241     18243
     18229     18241     18244     18230     18229     18231     18230     18229     18241
     18231     18229     18241     18232     18235     18236     18233     18232     18234
     18233     18232     18235     18234     18232     18235     18235     18236     18237
     18235     18236     18238     18236     18238     18239     18236     18238     18240
     18236     18238     18288     18237     18236     18238     18238     18288     18289
     18238     18288     18290     18238     18288     18291     18239     18238     18240
     18239     18238     18288     18240     18238     18288     18241     18244     18245
     18241     18244     18246     18241     18244     18247     18242     18241     18243
     18242     18241     18244     18243     18241     18244     18244     18247     18248
     18244     18247     18249     18245     18244     18246     18245     18244     18247
     18246     18244     18247     18247     18249     18250     18247     18249     18251
     18248     18247     18249     18249     18251     18252     18249     18251     18253
     18249     18251     18254     18250     18249     18251     18251     18254     18255
     18251     18254     18256     18252     18251     18253     18252     18251     18254
     18253     18251     18254     18254     18256     18257     18254     18256     18258
     18255     18254     18256     18256     18258     18259     18256     18258     18260
     18256     18258     18261     18257     18256     18258     18258     18261     18262
     18258     18261     18263     18259     18258     18260     18259     18258     18261
     18260     18258     18261     18261     18263     18264     18261     18263     18265
     18262     18261     18263     18263     18265     18266     18263     18265     18267
     18263     18265     18268     18264     18263     18265     18265     18268     18269
     18265     18268     18270     18266     18265     18267     18266     18265     18268
     18267     18265     18268     18268     18270     18271     18268     18270     18272
     18269     18268     18270     18270     18272     18273     18270     18272     18274
     18270     18272     18275     18271     18270     18272     18272     18275     18276
     18272     18275     18277     18272     18275     18278     18273     18272     18274
     18273     18272     18275     18274     18272     18275     18275     18278     18279
     18275     18278     18280     18275     18278     18281     18276     18275     18277
     18276     18275     18278     18277     18275     18278     18278     18281     18282
     18278     18281     18283     18278     18281     18284     18279     18278     18280
     18279     18278     18281     18280     18278     18281     18281     18284     18285
     18281     18284     18286     18281     18284     18287     18282     18281     18283
     18282     18281     18284     18283     18281     18284     18285     18284     18286
     18285     18284     18287     18286     18284     18287     18288     18291     18292
     18288     18291     18293     18288     18291     18294     18289     18288     18290
     18289     18288     18291     18290     18288     18291     18291     18294     18295
     18291     18294     18296     18291     18294     18297     18292     18291     18293
     18292     18291     18294     18293     18291     18294     18294     18297     18298
     18294     18297     18299     18294     18297     18300     18295     18294     18296
     18295     18294     18297     18296     18294     18297     18297     18300     18301
     18297     18300     18302     18297     18300     18303     18298     18297     18299
     18298     18297     18300     18299     18297     18300     18300     18303     18304
     18300     18303     18305     18300     18303     18306     18301     18300     18302
     18301     18300     18303     18302     18300     18303     18303     18306     18307
     18303     18306     18308     18303     18306     18309     18304     18303     18305
     18304     18303     18306     18305     18303     18306     18306     18309     18310
     18306     18309     18311     18306     18309     18312     18307     18306     18308
     18307     18306     18309     18308     18306     18309     18309     18312     18313
     18309     18312     18314     18309     18312     18315     18310     18309     18311
     18310     18309     18312     18311     18309     18312     18312     18315     18316
     18312     18315     18317     18312     18315     18318     18313     18312     18314
     18313     18312     18315     18314     18312     18315     18315     18318     18319
     18315     18318     18320     18315     18318     18321     18316     18315     18317
     18316     18315     18318     18317     18315     18318     18318     18321     18322
     18318     18321     18323     18318     18321     18324     18319     18318     18320
     18319     18318     18321     18320     18318     18321     18321     18324     18325
     18321     18324     18326     18321     18324     18327     18322     18321     18323
     18322     18321     18324     18323     18321     18324     18324     18327     18328
     18324     18327     18329     18324     18327     18330     18325     18324     18326
     18325     18324     18327     18326     18324     18327     18327     18330     18331
     18327     18330     18332     18327     18330     18333     18328     18327     18329
     18328     18327     18330     18329     18327     18330     18330     18333     18334
     18330     18333     18335     18330     18333     18336     18331     18330     18332
     18331     18330     18333     18332     18330     18333     18334     18333     18335
     18334     18333     18336     18335     18333     18336     18337     18339     18340
     18337     18341     18342     18337     18341     18343     18337     18341     18344
     18337     18383     18380     18337     18383     18384     18337     18383     18385
     18338     18337     18339     18338     18337     18341     18338     18337     18383
     18339     18337     18341     18339     18337     18383     18341     18337     18383
     18341     18344     18345     18341     18344     18375     18342     18341     18343
     18342     18341     18344     18343     18341     18344     18344     18345     18346
     18344     18345     18347     18344     18375     18373     18344     18375     18376
     18344     18375     18380     18345     18344     18375     18345     18347     18348
     18345     18347     18349     18345     18347     18350     18346     18345     18347
     18347     18350     18351     18347     18350     18352     18347     18350     18373
     18348     18347     18349     18348     18347     18350     18349     18347     18350
     18350     18352     18353     18350     18352     18354     18350     18352     18362
     18350     18373     18370     18350     18373     18374     18350     18373     18375
     18351     18350     18352     18351     18350     18373     18352     18350     18373
     18352     18354     18355     18352     18354     18356     18352     18354     18357
     18352     18362     18360     18352     18362     18363     18352     18362     18367
     18353     18352     18354     18353     18352     18362     18354     18352     18362
     18354     18357     18358     18354     18357     18359     18354     18357     18360
     18355     18354     18356     18355     18354     18357     18356     18354     18357
     18357     18360     18361     18357     18360     18362     18357     18360     18386
     18358     18357     18359     18358     18357     18360     18359     18357     18360
     18360     18362     18363     18360     18362     18367     18360     18386     18387
     18360     18386     18388     18360     18386     18392     18361     18360     18362
     18361     18360     18386     18362     18360     18386     18362     18363     18364
     18362     18363     18365     18362     18363     18366     18362     18367     18368
     18362     18367     18369     18362     18367     18370     18363     18362     18367
     18364     18363     18365     18364     18363     18366     18365     18363     18366
     18367     18370     18371     18367     18370     18372     18367     18370     18373
     18368     18367     18369     18368     18367     18370     18369     18367     18370
     18370     18373     18374     18370     18373     18375     18371     18370     18372
     18371     18370     18373     18372     18370     18373     18373     18375     18376
     18373     18375     18380     18374     18373     18375     18375     18376     18377
     18375     18376     18378     18375     18376     18379     18375     18380     18381
     18375     18380     18382     18375     18380     18383     18376     18375     18380
     18377     18376     18378     18377     18376     18379     18378     18376     18379
     18380     18383     18384     18380     18383     18385     18381     18380     18382
     18381     18380     18383     18382     18380     18383     18384     18383     18385
     18386     18388     18389     18386     18388     18390     18386     18388     18391
     18386     18392     18393     18386     18392     18394     18386     18392     18395
     18387     18386     18388     18387     18386     18392     18388     18386     18392
     18389     18388     18390     18389     18388     18391     18390     18388     18391
     18392     18395     18396     18392     18395     18397     18392     18395     18398
     18393     18392     18394     18393     18392     18395     18394     18392     18395
     18395     18398     18399     18395     18398     18400     18395     18398     18401
     18396     18395     18397     18396     18395     18398     18397     18395     18398
     18398     18401     18402     18398     18401     18403     18398     18401     18407
     18399     18398     18400     18399     18398     18401     18400     18398     18401
     18401     18403     18404     18401     18403     18405     18401     18403     18406
     18401     18407     18408     18401     18407     18409     18401     18407     18410
     18402     18401     18403     18402     18401     18407     18403     18401     18407
     18404     18403     18405     18404     18403     18406     18405     18403     18406
     18408     18407     18409     18408     18407     18410     18409     18407     18410
     18411     18413     18414     18411     18415     18416     18411     18415     18417
     18411     18415     18419     18411     18431     18427     18411     18431     18432
     18411     18431     18436     18412     18411     18413     18412     18411     18415
     18412     18411     18431     18413     18411     18415     18413     18411     18431
     18415     18411     18431     18415     18417     18418     18415     18419     18420
     18415     18419     18421     18415     18419     18423     18416     18415     18417
     18416     18415     18419     18417     18415     18419     18419     18421     18422
     18419     18423     18424     18419     18423     18425     18419     18423     18427
     18420     18419     18421     18420     18419     18423     18421     18419     18423
     18423     18425     18426     18423     18427     18428     18423     18427     18429
     18423     18427     18431     18424     18423     18425     18424     18423     18427
     18425     18423     18427     18427     18429     18430     18427     18431     18432
     18427     18431     18436     18428     18427     18429     18428     18427     18431
     18429     18427     18431     18431     18436     18433     18432     18431     18436
     18433     18437     18438     18434     18433     18435     18434     18433     18436
     18434     18433     18437     18435     18433     18436     18435     18433     18437
     18436     18433     18437     18437     18438     18439     18437     18438     18440
     18437     18438     18441     18438     18441     18442     18438     18441     18443
     18438     18441     18449     18439     18438     18440     18439     18438     18441
     18440     18438     18441     18441     18443     18444     18441     18449     18450
     18441     18449     18451     18441     18449     18452     18442     18441     18443
     18442     18441     18449     18443     18441     18449     18443     18444     18445
     18443     18444     18446     18444     18446     18447     18444     18446     18448
     18444     18446     18458     18445     18444     18446     18446     18458     18459
     18446     18458     18460     18446     18458     18461     18447     18446     18448
     18447     18446     18458     18448     18446     18458     18449     18452     18453
     18450     18449     18451     18450     18449     18452     18451     18449     18452
     18452     18453     18454     18452     18453     18455     18453     18455     18456
     18453     18455     18457     18453     18455     18505     18454     18453     18455
     18455     18505     18506     18455     18505     18507     18455     18505     18508
     18456     18455     18457     18456     18455     18505     18457     18455     18505
     18458     18461     18462     18458     18461     18463     18458     18461     18464
     18459     18458     18460     18459     18458     18461     18460     18458     18461
     18461     18464     18465     18461     18464     18466     18462     18461     18463
     18462     18461     18464     18463     18461     18464     18464     18466     18467
     18464     18466     18468     18465     18464     18466     18466     18468     18469
     18466     18468     18470     18466     18468     18471     18467     18466     18468
     18468     18471     18472     18468     18471     18473     18469     18468     18470
     18469     18468     18471     18470     18468     18471     18471     18473     18474
     18471     18473     18475     18472     18471     18473     18473     18475     18476
     18473     18475     18477     18473     18475     18478     18474     18473     18475
     18475     18478     18479     18475     18478     18480     18476     18475     18477
     18476     18475     18478     18477     18475     18478     18478     18480     18481
     18478     18480     18482     18479     18478     18480     18480     18482     18483
     18480     18482     18484     18480     18482     18485     18481     18480     18482
     18482     18485     18486     18482     18485     18487     18483     18482     18484
     18483     18482     18485     18484     18482     18485     18485     18487     18488
     18485     18487     18489     18486     18485     18487     18487     18489     18490
     18487     18489     18491     18487     18489     18492     18488     18487     18489
     18489     18492     18493     18489     18492     18494     18489     18492     18495
     18490     18489     18491     18490     18489     18492     18491     18489     18492
     18492     18495     18496     18492     18495     18497     18492     18495     18498
     18493     18492     18494     18493     18492     18495     18494     18492     18495
     18495     18498     18499     18495     18498     18500     18495     18498     18501
     18496     18495     18497     18496     18495     18498     18497     18495     18498
     18498     18501     18502     18498     18501     18503     18498     18501     18504
     18499     18498     18500     18499     18498     18501     18500     18498     18501
     18502     18501     18503     18502     18501     18504     18503     18501     18504
     18505     18508     18509     18505     18508     18510     18505     18508     18511
     18506     18505     18507     18506     18505     18508     18507     18505     18508
     18508     18511     18512     18508     18511     18513     18508     18511     18514
     18509     18508     18510     18509     18508     18511     18510     18508     18511
     18511     18514     18515     18511     18514     18516     18511     18514     18517
     18512     18511     18513     18512     18511     18514     18513     18511     18514
     18514     18517     18518     18514     18517     18519     18514     18517     18520
     18515     18514     18516     18515     18514     18517     18516     18514     18517
     18517     18520     18521     18517     18520     18522     18517     18520     18523
     18518     18517     18519     18518     18517     18520     18519     18517     18520
     18520     18523     18524     18520     18523     18525     18520     18523     18526
     18521     18520     18522     18521     18520     18523     18522     18520     18523
     18523     18526     18527     18523     18526     18528     18523     18526     18529
     18524     18523     18525     18524     18523     18526     18525     18523     18526
     18526     18529     18530     18526     18529     18531     18526     18529     18532
     18527     18526     18528     18527     18526     18529     18528     18526     18529
     18529     18532     18533     18529     18532     18534     18529     18532     18535
     18530     18529     18531     18530     18529     18532     18531     18529     18532
     18532     18535     18536     18532     18535     18537     18532     18535     18538
     18533     18532     18534     18533     18532     18535     18534     18532     18535
     18535     18538     18539     18535     18538     18540     18535     18538     18541
     18536     18535     18537     18536     18535     18538     18537     18535     18538
     18538     18541     18542     18538     18541     18543     18538     18541     18544
     18539     18538     18540     18539     18538     18541     18540     18538     18541
     18541     18544     18545     18541     18544     18546     18541     18544     18547
     18542     18541     18543     18542     18541     18544     18543     18541     18544
     18544     18547     18548     18544     18547     18549     18544     18547     18550
     18545     18544     18546     18545     18544     18547     18546     18544     18547
     18547     18550     18551     18547     18550     18552     18547     18550     18553
     18548     18547     18549     18548     18547     18550     18549     18547     18550
     18551     18550     18552     18551     18550     18553     18552     18550     18553
     18554     18555     18556     18554     18555     18557     18554     18555     18558
     18554     18559     18560     18554     18559     18561     18554     18559     18562
     18554     18563     18564     18554     18563     18565     18554     18563     18566
     18554     18567     18568     18554     18567     18569     18554     18567     18570
     18555     18554     18559     18555     18554     18563     18555     18554     18567
     18556     18555     18557     18556     18555     18558     18557     18555     18558
     18559     18554     18563     18559     18554     18567     18560     18559     18561
     18560     18559     18562     18561     18559     18562     18563     18554     18567
     18564     18563     18565     18564     18563     18566     18565     18563     18566
     18567     18570     18571     18567     18570     18572     18567     18570     18577
     18568     18567     18569     18568     18567     18570     18569     18567     18570
     18570     18577     18573     18571     18570     18572     18571     18570     18577
     18572     18570     18577     18573     18576     18578     18574     18573     18575
     18574     18573     18576     18574     18573     18577     18575     18573     18576
     18575     18573     18577     18576     18573     18577     18576     18578     18579
     18576     18578     18580     18576     18578     18583     18578     18583     18581
     18578     18583     18584     18578     18583     18585     18579     18578     18580
     18579     18578     18583     18580     18578     18583     18581     18583     18584
     18581     18583     18585     18581     18633     18634     18581     18633     18635
     18582     18581     18583     18582     18581     18633     18583     18581     18633
     18583     18585     18586     18583     18585     18587     18583     18585     18589
     18584     18583     18585     18585     18587     18588     18585     18589     18590
     18585     18589     18591     18586     18585     18587     18586     18585     18589
     18587     18585     18589     18589     18591     18592     18589     18591     18593
     18590     18589     18591     18591     18593     18594     18591     18593     18595
     18591     18593     18596     18592     18591     18593     18593     18596     18597
     18593     18596     18598     18593     18596     18599     18594     18593     18595
     18594     18593     18596     18595     18593     18596     18596     18599     18600
     18596     18599     18601     18596     18599     18602     18597     18596     18598
     18597     18596     18599     18598     18596     18599     18599     18602     18603
     18599     18602     18604     18599     18602     18605     18600     18599     18601
     18600     18599     18602     18601     18599     18602     18602     18605     18606
     18602     18605     18607     18602     18605     18608     18603     18602     18604
     18603     18602     18605     18604     18602     18605     18605     18608     18609
     18605     18608     18610     18605     18608     18611     18606     18605     18607
     18606     18605     18608     18607     18605     18608     18608     18611     18612
     18608     18611     18613     18608     18611     18614     18609     18608     18610
     18609     18608     18611     18610     18608     18611     18611     18614     18615
     18611     18614     18616     18611     18614     18617     18612     18611     18613
     18612     18611     18614     18613     18611     18614     18614     18617     18618
     18614     18617     18619     18614     18617     18620     18615     18614     18616
     18615     18614     18617     18616     18614     18617     18617     18620     18621
     18617     18620     18622     18617     18620     18623     18618     18617     18619
     18618     18617     18620     18619     18617     18620     18620     18623     18624
     18620     18623     18625     18620     18623     18626     18621     18620     18622
     18621     18620     18623     18622     18620     18623     18623     18626     18627
     18623     18626     18628     18623     18626     18629     18624     18623     18625
     18624     18623     18626     18625     18623     18626     18626     18629     18630
     18626     18629     18631     18626     18629     18632     18627     18626     18628
     18627     18626     18629     18628     18626     18629     18630     18629     18631
     18630     18629     18632     18631     18629     18632     18633     18635     18636
     18633     18635     18637     18633     18635     18638     18634     18633     18635
     18635     18638     18639     18635     18638     18640     18635     18638     18641
     18636     18635     18637     18636     18635     18638     18637     18635     18638
     18638     18641     18642     18638     18641     18643     18638     18641     18644
     18639     18638     18640     18639     18638     18641     18640     18638     18641
     18641     18644     18645     18641     18644     18646     18641     18644     18647
     18642     18641     18643     18642     18641     18644     18643     18641     18644
     18644     18647     18648     18644     18647     18649     18644     18647     18650
     18645     18644     18646     18645     18644     18647     18646     18644     18647
     18647     18650     18651     18647     18650     18652     18647     18650     18653
     18648     18647     18649     18648     18647     18650     18649     18647     18650
     18650     18653     18654     18650     18653     18655     18650     18653     18656
     18651     18650     18652     18651     18650     18653     18652     18650     18653
     18653     18656     18657     18653     18656     18658     18654     18653     18655
     18654     18653     18656     18655     18653     18656     18656     18658     18659
     18656     18658     18660     18657     18656     18658     18658     18660     18661
     18658     18660     18662     18658     18660     18663     18659     18658     18660
     18660     18663     18664     18660     18663     18665     18660     18663     18666
     18661     18660     18662     18661     18660     18663     18662     18660     18663
     18663     18666     18667     18663     18666     18668     18663     18666     18669
     18664     18663     18665     18664     18663     18666     18665     18663     18666
     18666     18669     18670     18666     18669     18671     18666     18669     18672
     18667     18666     18668     18667     18666     18669     18668     18666     18669
     18669     18672     18673     18669     18672     18674     18669     18672     18675
     18670     18669     18671     18670     18669     18672     18671     18669     18672
     18672     18675     18676     18672     18675     18677     18672     18675     18678
     18673     18672     18674     18673     18672     18675     18674     18672     18675
     18675     18678     18679     18675     18678     18680     18675     18678     18681
     18676     18675     18677     18676     18675     18678     18677     18675     18678
     18678     18681     18682     18678     18681     18683     18678     18681     18684
     18679     18678     18680     18679     18678     18681     18680     18678     18681
     18682     18681     18683     18682     18681     18684     18683     18681     18684
     18685     18686     18687     18685     18686     18688     18685     18686     18701
     18685     18689     18690     18685     18689     18691     18685     18689     18692
     18685     18693     18694     18685     18693     18695     18685     18693     18696
     18685     18697     18698     18685     18697     18699     18685     18697     18700
     18686     18685     18689     18686     18685     18693     18686     18685     18697
     18686     18701     18702     18686     18701     18703     18686     18701     18707
     18687     18686     18688     18687     18686     18701     18688     18686     18701
     18689     18685     18693     18689     18685     18697     18690     18689     18691
     18690     18689     18692     18691     18689     18692     18693     18685     18697
     18694     18693     18695     18694     18693     18696     18695     18693     18696
     18698     18697     18699     18698     18697     18700     18699     18697     18700
     18701     18707     18704     18702     18701     18703     18702     18701     18707
     18703     18701     18707     18704     18708     18709     18705     18704     18706
     18705     18704     18707     18705     18704     18708     18706     18704     18707
     18706     18704     18708     18707     18704     18708     18708     18709     18710
     18708     18709     18711     18708     18709     18712     18709     18712     18713
     18709     18712     18714     18709     18712     18720     18710     18709     18711
     18710     18709     18712     18711     18709     18712     18712     18714     18715
     18712     18720     18721     18712     18720     18722     18712     18720     18723
     18713     18712     18714     18713     18712     18720     18714     18712     18720
     18714     18715     18716     18714     18715     18717     18715     18717     18718
     18715     18717     18719     18715     18717     18729     18716     18715     18717
     18717     18729     18730     18717     18729     18731     18717     18729     18732
     18718     18717     18719     18718     18717     18729     18719     18717     18729
     18720     18723     18724     18721     18720     18722     18721     18720     18723
     18722     18720     18723     18723     18724     18725     18723     18724     18726
     18724     18726     18727     18724     18726     18728     18724     18726     18776
     18725     18724     18726     18726     18776     18777     18726     18776     18778
     18726     18776     18779     18727     18726     18728     18727     18726     18776
     18728     18726     18776     18729     18732     18733     18729     18732     18734
     18729     18732     18735     18730     18729     18731     18730     18729     18732
     18731     18729     18732     18732     18735     18736     18732     18735     18737
     18733     18732     18734     18733     18732     18735     18734     18732     18735
     18735     18737     18738     18735     18737     18739     18736     18735     18737
     18737     18739     18740     18737     18739     18741     18737     18739     18742
     18738     18737     18739     18739     18742     18743     18739     18742     18744
     18740     18739     18741     18740     18739     18742     18741     18739     18742
     18742     18744     18745     18742     18744     18746     18743     18742     18744
     18744     18746     18747     18744     18746     18748     18744     18746     18749
     18745     18744     18746     18746     18749     18750     18746     18749     18751
     18747     18746     18748     18747     18746     18749     18748     18746     18749
     18749     18751     18752     18749     18751     18753     18750     18749     18751
     18751     18753     18754     18751     18753     18755     18751     18753     18756
     18752     18751     18753     18753     18756     18757     18753     18756     18758
     18754     18753     18755     18754     18753     18756     18755     18753     18756
     18756     18758     18759     18756     18758     18760     18757     18756     18758
     18758     18760     18761     18758     18760     18762     18758     18760     18763
     18759     18758     18760     18760     18763     18764     18760     18763     18765
     18760     18763     18766     18761     18760     18762     18761     18760     18763
     18762     18760     18763     18763     18766     18767     18763     18766     18768
     18763     18766     18769     18764     18763     18765     18764     18763     18766
     18765     18763     18766     18766     18769     18770     18766     18769     18771
     18766     18769     18772     18767     18766     18768     18767     18766     18769
     18768     18766     18769     18769     18772     18773     18769     18772     18774
     18769     18772     18775     18770     18769     18771     18770     18769     18772
     18771     18769     18772     18773     18772     18774     18773     18772     18775
     18774     18772     18775     18776     18779     18780     18776     18779     18781
     18776     18779     18782     18777     18776     18778     18777     18776     18779
     18778     18776     18779     18779     18782     18783     18779     18782     18784
     18779     18782     18785     18780     18779     18781     18780     18779     18782
     18781     18779     18782     18782     18785     18786     18782     18785     18787
     18782     18785     18788     18783     18782     18784     18783     18782     18785
     18784     18782     18785     18785     18788     18789     18785     18788     18790
     18785     18788     18791     18786     18785     18787     18786     18785     18788
     18787     18785     18788     18788     18791     18792     18788     18791     18793
     18788     18791     18794     18789     18788     18790     18789     18788     18791
     18790     18788     18791     18791     18794     18795     18791     18794     18796
     18791     18794     18797     18792     18791     18793     18792     18791     18794
     18793     18791     18794     18794     18797     18798     18794     18797     18799
     18794     18797     18800     18795     18794     18796     18795     18794     18797
     18796     18794     18797     18797     18800     18801     18797     18800     18802
     18797     18800     18803     18798     18797     18799     18798     18797     18800
     18799     18797     18800     18800     18803     18804     18800     18803     18805
     18800     18803     18806     18801     18800     18802     18801     18800     18803
     18802     18800     18803     18803     18806     18807     18803     18806     18808
     18803     18806     18809     18804     18803     18805     18804     18803     18806
     18805     18803     18806     18806     18809     18810     18806     18809     18811
     18806     18809     18812     18807     18806     18808     18807     18806     18809
     18808     18806     18809     18809     18812     18813     18809     18812     18814
     18809     18812     18815     18810     18809     18811     18810     18809     18812
     18811     18809     18812     18812     18815     18816     18812     18815     18817
     18812     18815     18818     18813     18812     18814     18813     18812     18815
     18814     18812     18815     18815     18818     18819     18815     18818     18820
     18815     18818     18821     18816     18815     18817     18816     18815     18818
     18817     18815     18818     18818     18821     18822     18818     18821     18823
     18818     18821     18824     18819     18818     18820     18819     18818     18821
     18820     18818     18821     18822     18821     18823     18822     18821     18824
     18823     18821     18824     18825     18827     18828     18825     18829     18830
     18825     18829     18831     18825     18829     18832     18825     18871     18868
     18825     18871     18872     18825     18871     18873     18826     18825     18827
     18826     18825     18829     18826     18825     18871     18827     18825     18829
     18827     18825     18871     18829     18825     18871     18829     18832     18833
     18829     18832     18863     18830     18829     18831     18830     18829     18832
     18831     18829     18832     18832     18833     18834     18832     18833     18835
     18832     18863     18861     18832     18863     18864     18832     18863     18868
     18833     18832     18863     18833     18835     18836     18833     18835     18837
     18833     18835     18838     18834     18833     18835     18835     18838     18839
     18835     18838     18840     18835     18838     18861     18836     18835     18837
     18836     18835     18838     18837     18835     18838     18838     18840     18841
     18838     18840     18842     18838     18840     18850     18838     18861     18858
     18838     18861     18862     18838     18861     18863     18839     18838     18840
     18839     18838     18861     18840     18838     18861     18840     18842     18843
     18840     18842     18844     18840     18842     18845     18840     18850     18848
     18840     18850     18851     18840     18850     18855     18841     18840     18842
     18841     18840     18850     18842     18840     18850     18842     18845     18846
     18842     18845     18847     18842     18845     18848     18843     18842     18844
     18843     18842     18845     18844     18842     18845     18845     18848     18849
     18845     18848     18850     18845     18848     18874     18846     18845     18847
     18846     18845     18848     18847     18845     18848     18848     18850     18851
     18848     18850     18855     18848     18874     18875     18848     18874     18876
     18848     18874     18880     18849     18848     18850     18849     18848     18874
     18850     18848     18874     18850     18851     18852     18850     18851     18853
     18850     18851     18854     18850     18855     18856     18850     18855     18857
     18850     18855     18858     18851     18850     18855     18852     18851     18853
     18852     18851     18854     18853     18851     18854     18855     18858     18859
     18855     18858     18860     18855     18858     18861     18856     18855     18857
     18856     18855     18858     18857     18855     18858     18858     18861     18862
     18858     18861     18863     18859     18858     18860     18859     18858     18861
     18860     18858     18861     18861     18863     18864     18861     18863     18868
     18862     18861     18863     18863     18864     18865     18863     18864     18866
     18863     18864     18867     18863     18868     18869     18863     18868     18870
     18863     18868     18871     18864     18863     18868     18865     18864     18866
     18865     18864     18867     18866     18864     18867     18868     18871     18872
     18868     18871     18873     18869     18868     18870     18869     18868     18871
     18870     18868     18871     18872     18871     18873     18874     18876     18877
     18874     18876     18878     18874     18876     18879     18874     18880     18881
     18874     18880     18882     18874     18880     18883     18875     18874     18876
     18875     18874     18880     18876     18874     18880     18877     18876     18878
     18877     18876     18879     18878     18876     18879     18880     18883     18884
     18880     18883     18885     18880     18883     18886     18881     18880     18882
     18881     18880     18883     18882     18880     18883     18883     18886     18887
     18883     18886     18888     18883     18886     18889     18884     18883     18885
     18884     18883     18886     18885     18883     18886     18886     18889     18890
     18886     18889     18891     18886     18889     18895     18887     18886     18888
     18887     18886     18889     18888     18886     18889     18889     18891     18892
     18889     18891     18893     18889     18891     18894     18889     18895     18896
     18889     18895     18897     18889     18895     18898     18890     18889     18891
     18890     18889     18895     18891     18889     18895     18892     18891     18893
     18892     18891     18894     18893     18891     18894     18896     18895     18897
     18896     18895     18898     18897     18895     18898     18899     18903     18904
     18899     18903     18905     18899     18903     18906     18900     18899     18901
     18900     18899     18902     18900     18899     18903     18901     18899     18902
     18901     18899     18903     18902     18899     18903     18903     18906     18907
     18903     18906     18908     18903     18906     18912     18904     18903     18905
     18904     18903     18906     18905     18903     18906     18906     18912     18909
     18907     18906     18908     18907     18906     18912     18908     18906     18912
     18909     18913     18914     18910     18909     18911     18910     18909     18912
     18910     18909     18913     18911     18909     18912     18911     18909     18913
     18912     18909     18913     18913     18914     18915     18913     18914     18916
     18913     18914     18917     18914     18917     18918     18914     18917     18919
     18914     18917     18925     18915     18914     18916     18915     18914     18917
     18916     18914     18917     18917     18919     18920     18917     18925     18926
     18917     18925     18927     18917     18925     18928     18918     18917     18919
     18918     18917     18925     18919     18917     18925     18919     18920     18921
     18919     18920     18922     18920     18922     18923     18920     18922     18924
     18920     18922     18934     18921     18920     18922     18922     18934     18935
     18922     18934     18936     18922     18934     18937     18923     18922     18924
     18923     18922     18934     18924     18922     18934     18925     18928     18929
     18926     18925     18927     18926     18925     18928     18927     18925     18928
     18928     18929     18930     18928     18929     18931     18929     18931     18932
     18929     18931     18933     18929     18931     18981     18930     18929     18931
     18931     18981     18982     18931     18981     18983     18931     18981     18984
     18932     18931     18933     18932     18931     18981     18933     18931     18981
     18934     18937     18938     18934     18937     18939     18934     18937     18940
     18935     18934     18936     18935     18934     18937     18936     18934     18937
     18937     18940     18941     18937     18940     18942     18937     18940     18943
     18938     18937     18939     18938     18937     18940     18939     18937     18940
     18940     18943     18944     18940     18943     18945     18940     18943     18946
     18941     18940     18942     18941     18940     18943     18942     18940     18943
     18943     18946     18947     18943     18946     18948     18943     18946     18949
     18944     18943     18945     18944     18943     18946     18945     18943     18946
     18946     18949     18950     18946     18949     18951     18946     18949     18952
     18947     18946     18948     18947     18946     18949     18948     18946     18949
     18949     18952     18953     18949     18952     18954     18950     18949     18951
     18950     18949     18952     18951     18949     18952     18952     18954     18955
     18952     18954     18956     18953     18952     18954     18954     18956     18957
     18954     18956     18958     18954     18956     18959     18955     18954     18956
     18956     18959     18960     18956     18959     18961     18956     18959     18962
     18957     18956     18958     18957     18956     18959     18958     18956     18959
     18959     18962     18963     18959     18962     18964     18959     18962     18965
     18960     18959     18961     18960     18959     18962     18961     18959     18962
     18962     18965     18966     18962     18965     18967     18962     18965     18968
     18963     18962     18964     18963     18962     18965     18964     18962     18965
     18965     18968     18969     18965     18968     18970     18965     18968     18971
     18966     18965     18967     18966     18965     18968     18967     18965     18968
     18968     18971     18972     18968     18971     18973     18968     18971     18974
     18969     18968     18970     18969     18968     18971     18970     18968     18971
     18971     18974     18975     18971     18974     18976     18971     18974     18977
     18972     18971     18973     18972     18971     18974     18973     18971     18974
     18974     18977     18978     18974     18977     18979     18974     18977     18980
     18975     18974     18976     18975     18974     18977     18976     18974     18977
     18978     18977     18979     18978     18977     18980     18979     18977     18980
     18981     18984     18985     18981     18984     18986     18981     18984     18987
     18982     18981     18983     18982     18981     18984     18983     18981     18984
     18984     18987     18988     18984     18987     18989     18984     18987     18990
     18985     18984     18986     18985     18984     18987     18986     18984     18987
     18987     18990     18991     18987     18990     18992     18987     18990     18993
     18988     18987     18989     18988     18987     18990     18989     18987     18990
     18990     18993     18994     18990     18993     18995     18990     18993     18996
     18991     18990     18992     18991     18990     18993     18992     18990     18993
     18993     18996     18997     18993     18996     18998     18993     18996     18999
     18994     18993     18995     18994     18993     18996     18995     18993     18996
     18996     18999     19000     18996     18999     19001     18996     18999     19002
     18997     18996     18998     18997     18996     18999     18998     18996     18999
     18999     19002     19003     18999     19002     19004     18999     19002     19005
     19000     18999     19001     19000     18999     19002     19001     18999     19002
     19002     19005     19006     19002     19005     19007     19002     19005     19008
     19003     19002     19004     19003     19002     19005     19004     19002     19005
     19005     19008     19009     19005     19008     19010     19005     19008     19011
     19006     19005     19007     19006     19005     19008     19007     19005     19008
     19008     19011     19012     19008     19011     19013     19008     19011     19014
     19009     19008     19010     19009     19008     19011     19010     19008     19011
     19011     19014     19015     19011     19014     19016     19011     19014     19017
     19012     19011     19013     19012     19011     19014     19013     19011     19014
     19014     19017     19018     19014     19017     19019     19014     19017     19020
     19015     19014     19016     19015     19014     19017     19016     19014     19017
     19017     19020     19021     19017     19020     19022     19017     19020     19023
     19018     19017     19019     19018     19017     19020     19019     19017     19020
     19020     19023     19024     19020     19023     19025     19020     19023     19026
     19021     19020     19022     19021     19020     19023     19022     19020     19023
     19023     19026     19027     19023     19026     19028     19023     19026     19029
     19024     19023     19025     19024     19023     19026     19025     19023     19026
     19027     19026     19028     19027     19026     19029     19028     19026     19029
     19030     19031     19032     19030     19031     19033     19030     19031     19034
     19030     19035     19036     19030     19035     19037     19030     19035     19038
     19030     19039     19040     19030     19039     19041     19030     19039     19042
     19030     19043     19044     19030     19043     19045     19030     19043     19046
     19031     19030     19035     19031     19030     19039     19031     19030     19043
     19032     19031     19033     19032     19031     19034     19033     19031     19034
     19035     19030     19039     19035     19030     19043     19036     19035     19037
     19036     19035     19038     19037     19035     19038     19039     19030     19043
     19040     19039     19041     19040     19039     19042     19041     19039     19042
     19043     19046     19047     19043     19046     19048     19043     19046     19053
     19044     19043     19045     19044     19043     19046     19045     19043     19046
     19046     19053     19049     19047     19046     19048     19047     19046     19053
     19048     19046     19053     19049     19052     19054     19050     19049     19051
     19050     19049     19052     19050     19049     19053     19051     19049     19052
     19051     19049     19053     19052     19049     19053     19052     19054     19055
     19052     19054     19056     19052     19054     19059     19054     19059     19057
     19054     19059     19060     19054     19059     19061     19055     19054     19056
     19055     19054     19059     19056     19054     19059     19057     19059     19060
     19057     19059     19061     19057     19109     19110     19057     19109     19111
     19058     19057     19059     19058     19057     19109     19059     19057     19109
     19059     19061     19062     19059     19061     19063     19059     19061     19065
     19060     19059     19061     19061     19063     19064     19061     19065     19066
     19061     19065     19067     19062     19061     19063     19062     19061     19065
     19063     19061     19065     19065     19067     19068     19065     19067     19069
     19066     19065     19067     19067     19069     19070     19067     19069     19071
     19067     19069     19072     19068     19067     19069     19069     19072     19073
     19069     19072     19074     19069     19072     19075     19070     19069     19071
     19070     19069     19072     19071     19069     19072     19072     19075     19076
     19072     19075     19077     19072     19075     19078     19073     19072     19074
     19073     19072     19075     19074     19072     19075     19075     19078     19079
     19075     19078     19080     19075     19078     19081     19076     19075     19077
     19076     19075     19078     19077     19075     19078     19078     19081     19082
     19078     19081     19083     19078     19081     19084     19079     19078     19080
     19079     19078     19081     19080     19078     19081     19081     19084     19085
     19081     19084     19086     19081     19084     19087     19082     19081     19083
     19082     19081     19084     19083     19081     19084     19084     19087     19088
     19084     19087     19089     19084     19087     19090     19085     19084     19086
     19085     19084     19087     19086     19084     19087     19087     19090     19091
     19087     19090     19092     19087     19090     19093     19088     19087     19089
     19088     19087     19090     19089     19087     19090     19090     19093     19094
     19090     19093     19095     19090     19093     19096     19091     19090     19092
     19091     19090     19093     19092     19090     19093     19093     19096     19097
     19093     19096     19098     19093     19096     19099     19094     19093     19095
     19094     19093     19096     19095     19093     19096     19096     19099     19100
     19096     19099     19101     19096     19099     19102     19097     19096     19098
     19097     19096     19099     19098     19096     19099     19099     19102     19103
     19099     19102     19104     19099     19102     19105     19100     19099     19101
     19100     19099     19102     19101     19099     19102     19102     19105     19106
     19102     19105     19107     19102     19105     19108     19103     19102     19104
     19103     19102     19105     19104     19102     19105     19106     19105     19107
     19106     19105     19108     19107     19105     19108     19109     19111     19112
     19109     19111     19113     19109     19111     19114     19110     19109     19111
     19111     19114     19115     19111     19114     19116     19111     19114     19117
     19112     19111     19113     19112     19111     19114     19113     19111     19114
     19114     19117     19118     19114     19117     19119     19114     19117     19120
     19115     19114     19116     19115     19114     19117     19116     19114     19117
     19117     19120     19121     19117     19120     19122     19117     19120     19123
     19118     19117     19119     19118     19117     19120     19119     19117     19120
     19120     19123     19124     19120     19123     19125     19120     19123     19126
     19121     19120     19122     19121     19120     19123     19122     19120     19123
     19123     19126     19127     19123     19126     19128     19123     19126     19129
     19124     19123     19125     19124     19123     19126     19125     19123     19126
     19126     19129     19130     19126     19129     19131     19126     19129     19132
     19127     19126     19128     19127     19126     19129     19128     19126     19129
     19129     19132     19133     19129     19132     19134     19130     19129     19131
     19130     19129     19132     19131     19129     19132     19132     19134     19135
     19132     19134     19136     19133     19132     19134     19134     19136     19137
     19134     19136     19138     19134     19136     19139     19135     19134     19136
     19136     19139     19140     19136     19139     19141     19136     19139     19142
     19137     19136     19138     19137     19136     19139     19138     19136     19139
     19139     19142     19143     19139     19142     19144     19139     19142     19145
     19140     19139     19141     19140     19139     19142     19141     19139     19142
     19142     19145     19146     19142     19145     19147     19142     19145     19148
     19143     19142     19144     19143     19142     19145     19144     19142     19145
     19145     19148     19149     19145     19148     19150     19145     19148     19151
     19146     19145     19147     19146     19145     19148     19147     19145     19148
     19148     19151     19152     19148     19151     19153     19148     19151     19154
     19149     19148     19150     19149     19148     19151     19150     19148     19151
     19151     19154     19155     19151     19154     19156     19151     19154     19157
     19152     19151     19153     19152     19151     19154     19153     19151     19154
     19154     19157     19158     19154     19157     19159     19154     19157     19160
     19155     19154     19156     19155     19154     19157     19156     19154     19157
     19158     19157     19159     19158     19157     19160     19159     19157     19160
     19161     19165     19166     19161     19165     19167     19161     19165     19168
     19162     19161     19163     19162     19161     19164     19162     19161     19165
     19163     19161     19164     19163     19161     19165     19164     19161     19165
     19165     19168     19169     19165     19168     19170     19165     19168     19174
     19166     19165     19167     19166     19165     19168     19167     19165     19168
     19168     19174     19171     19169     19168     19170     19169     19168     19174
     19170     19168     19174     19171     19175     19176     19172     19171     19173
     19172     19171     19174     19172     19171     19175     19173     19171     19174
     19173     19171     19175     19174     19171     19175     19175     19176     19177
     19175     19176     19178     19175     19176     19179     19176     19179     19180
     19176     19179     19181     19176     19179     19187     19177     19176     19178
     19177     19176     19179     19178     19176     19179     19179     19181     19182
     19179     19187     19188     19179     19187     19189     19179     19187     19190
     19180     19179     19181     19180     19179     19187     19181     19179     19187
     19181     19182     19183     19181     19182     19184     19182     19184     19185
     19182     19184     19186     19182     19184     19196     19183     19182     19184
     19184     19196     19197     19184     19196     19198     19184     19196     19199
     19185     19184     19186     19185     19184     19196     19186     19184     19196
     19187     19190     19191     19188     19187     19189     19188     19187     19190
     19189     19187     19190     19190     19191     19192     19190     19191     19193
     19191     19193     19194     19191     19193     19195     19191     19193     19243
     19192     19191     19193     19193     19243     19244     19193     19243     19245
     19193     19243     19246     19194     19193     19195     19194     19193     19243
     19195     19193     19243     19196     19199     19200     19196     19199     19201
     19196     19199     19202     19197     19196     19198     19197     19196     19199
     19198     19196     19199     19199     19202     19203     19199     19202     19204
     19200     19199     19201     19200     19199     19202     19201     19199     19202
     19202     19204     19205     19202     19204     19206     19203     19202     19204
     19204     19206     19207     19204     19206     19208     19204     19206     19209
     19205     19204     19206     19206     19209     19210     19206     19209     19211
     19207     19206     19208     19207     19206     19209     19208     19206     19209
     19209     19211     19212     19209     19211     19213     19210     19209     19211
     19211     19213     19214     19211     19213     19215     19211     19213     19216
     19212     19211     19213     19213     19216     19217     19213     19216     19218
     19214     19213     19215     19214     19213     19216     19215     19213     19216
     19216     19218     19219     19216     19218     19220     19217     19216     19218
     19218     19220     19221     19218     19220     19222     19218     19220     19223
     19219     19218     19220     19220     19223     19224     19220     19223     19225
     19221     19220     19222     19221     19220     19223     19222     19220     19223
     19223     19225     19226     19223     19225     19227     19224     19223     19225
     19225     19227     19228     19225     19227     19229     19225     19227     19230
     19226     19225     19227     19227     19230     19231     19227     19230     19232
     19227     19230     19233     19228     19227     19229     19228     19227     19230
     19229     19227     19230     19230     19233     19234     19230     19233     19235
     19230     19233     19236     19231     19230     19232     19231     19230     19233
     19232     19230     19233     19233     19236     19237     19233     19236     19238
     19233     19236     19239     19234     19233     19235     19234     19233     19236
     19235     19233     19236     19236     19239     19240     19236     19239     19241
     19236     19239     19242     19237     19236     19238     19237     19236     19239
     19238     19236     19239     19240     19239     19241     19240     19239     19242
     19241     19239     19242     19243     19246     19247     19243     19246     19248
     19243     19246     19249     19244     19243     19245     19244     19243     19246
     19245     19243     19246     19246     19249     19250     19246     19249     19251
     19246     19249     19252     19247     19246     19248     19247     19246     19249
     19248     19246     19249     19249     19252     19253     19249     19252     19254
     19249     19252     19255     19250     19249     19251     19250     19249     19252
     19251     19249     19252     19252     19255     19256     19252     19255     19257
     19252     19255     19258     19253     19252     19254     19253     19252     19255
     19254     19252     19255     19255     19258     19259     19255     19258     19260
     19255     19258     19261     19256     19255     19257     19256     19255     19258
     19257     19255     19258     19258     19261     19262     19258     19261     19263
     19258     19261     19264     19259     19258     19260     19259     19258     19261
     19260     19258     19261     19261     19264     19265     19261     19264     19266
     19261     19264     19267     19262     19261     19263     19262     19261     19264
     19263     19261     19264     19264     19267     19268     19264     19267     19269
     19264     19267     19270     19265     19264     19266     19265     19264     19267
     19266     19264     19267     19267     19270     19271     19267     19270     19272
     19267     19270     19273     19268     19267     19269     19268     19267     19270
     19269     19267     19270     19270     19273     19274     19270     19273     19275
     19270     19273     19276     19271     19270     19272     19271     19270     19273
     19272     19270     19273     19273     19276     19277     19273     19276     19278
     19273     19276     19279     19274     19273     19275     19274     19273     19276
     19275     19273     19276     19276     19279     19280     19276     19279     19281
     19276     19279     19282     19277     19276     19278     19277     19276     19279
     19278     19276     19279     19279     19282     19283     19279     19282     19284
     19279     19282     19285     19280     19279     19281     19280     19279     19282
     19281     19279     19282     19282     19285     19286     19282     19285     19287
     19282     19285     19288     19283     19282     19284     19283     19282     19285
     19284     19282     19285     19285     19288     19289     19285     19288     19290
     19285     19288     19291     19286     19285     19287     19286     19285     19288
     19287     19285     19288     19289     19288     19290     19289     19288     19291
     19290     19288     19291     19292     19296     19297     19292     19296     19298
     19292     19296     19301     19293     19292     19294     19293     19292     19295
     19293     19292     19296     19294     19292     19295     19294     19292     19296
     19295     19292     19296     19296     19298     19299     19296     19298     19300
     19296     19301     19302     19296     19301     19303     19296     19301     19307
     19297     19296     19298     19297     19296     19301     19298     19296     19301
     19299     19298     19300     19301     19307     19304     19302     19301     19303
     19302     19301     19307     19303     19301     19307     19304     19308     19309
     19305     19304     19306     19305     19304     19307     19305     19304     19308
     19306     19304     19307     19306     19304     19308     19307     19304     19308
     19308     19309     19310     19308     19309     19311     19308     19309     19312
     19309     19312     19313     19309     19312     19314     19309     19312     19320
     19310     19309     19311     19310     19309     19312     19311     19309     19312
     19312     19314     19315     19312     19320     19321     19312     19320     19322
     19312     19320     19323     19313     19312     19314     19313     19312     19320
     19314     19312     19320     19314     19315     19316     19314     19315     19317
     19315     19317     19318     19315     19317     19319     19315     19317     19329
     19316     19315     19317     19317     19329     19330     19317     19329     19331
     19317     19329     19332     19318     19317     19319     19318     19317     19329
     19319     19317     19329     19320     19323     19324     19321     19320     19322
     19321     19320     19323     19322     19320     19323     19323     19324     19325
     19323     19324     19326     19324     19326     19327     19324     19326     19328
     19324     19326     19376     19325     19324     19326     19326     19376     19377
     19326     19376     19378     19326     19376     19379     19327     19326     19328
     19327     19326     19376     19328     19326     19376     19329     19332     19333
     19329     19332     19334     19329     19332     19335     19330     19329     19331
     19330     19329     19332     19331     19329     19332     19332     19335     19336
     19332     19335     19337     19333     19332     19334     19333     19332     19335
     19334     19332     19335     19335     19337     19338     19335     19337     19339
     19336     19335     19337     19337     19339     19340     19337     19339     19341
     19337     19339     19342     19338     19337     19339     19339     19342     19343
     19339     19342     19344     19340     19339     19341     19340     19339     19342
     19341     19339     19342     19342     19344     19345     19342     19344     19346
     19343     19342     19344     19344     19346     19347     19344     19346     19348
     19344     19346     19349     19345     19344     19346     19346     19349     19350
     19346     19349     19351     19347     19346     19348     19347     19346     19349
     19348     19346     19349     19349     19351     19352     19349     19351     19353
     19350     19349     19351     19351     19353     19354     19351     19353     19355
     19351     19353     19356     19352     19351     19353     19353     19356     19357
     19353     19356     19358     19354     19353     19355     19354     19353     19356
     19355     19353     19356     19356     19358     19359     19356     19358     19360
     19357     19356     19358     19358     19360     19361     19358     19360     19362
     19358     19360     19363     19359     19358     19360     19360     19363     19364
     19360     19363     19365     19360     19363     19366     19361     19360     19362
     19361     19360     19363     19362     19360     19363     19363     19366     19367
     19363     19366     19368     19363     19366     19369     19364     19363     19365
     19364     19363     19366     19365     19363     19366     19366     19369     19370
     19366     19369     19371     19366     19369     19372     19367     19366     19368
     19367     19366     19369     19368     19366     19369     19369     19372     19373
     19369     19372     19374     19369     19372     19375     19370     19369     19371
     19370     19369     19372     19371     19369     19372     19373     19372     19374
     19373     19372     19375     19374     19372     19375     19376     19379     19380
     19376     19379     19381     19376     19379     19382     19377     19376     19378
     19377     19376     19379     19378     19376     19379     19379     19382     19383
     19379     19382     19384     19379     19382     19385     19380     19379     19381
     19380     19379     19382     19381     19379     19382     19382     19385     19386
     19382     19385     19387     19382     19385     19388     19383     19382     19384
     19383     19382     19385     19384     19382     19385     19385     19388     19389
     19385     19388     19390     19385     19388     19391     19386     19385     19387
     19386     19385     19388     19387     19385     19388     19388     19391     19392
     19388     19391     19393     19388     19391     19394     19389     19388     19390
     19389     19388     19391     19390     19388     19391     19391     19394     19395
     19391     19394     19396     19391     19394     19397     19392     19391     19393
     19392     19391     19394     19393     19391     19394     19394     19397     19398
     19394     19397     19399     19394     19397     19400     19395     19394     19396
     19395     19394     19397     19396     19394     19397     19397     19400     19401
     19397     19400     19402     19397     19400     19403     19398     19397     19399
     19398     19397     19400     19399     19397     19400     19400     19403     19404
     19400     19403     19405     19400     19403     19406     19401     19400     19402
     19401     19400     19403     19402     19400     19403     19403     19406     19407
     19403     19406     19408     19403     19406     19409     19404     19403     19405
     19404     19403     19406     19405     19403     19406     19406     19409     19410
     19406     19409     19411     19406     19409     19412     19407     19406     19408
     19407     19406     19409     19408     19406     19409     19409     19412     19413
     19409     19412     19414     19409     19412     19415     19410     19409     19411
     19410     19409     19412     19411     19409     19412     19412     19415     19416
     19412     19415     19417     19412     19415     19418     19413     19412     19414
     19413     19412     19415     19414     19412     19415     19415     19418     19419
     19415     19418     19420     19415     19418     19421     19416     19415     19417
     19416     19415     19418     19417     19415     19418     19418     19421     19422
     19418     19421     19423     19418     19421     19424     19419     19418     19420
     19419     19418     19421     19420     19418     19421     19422     19421     19423
     19422     19421     19424     19423     19421     19424     19425     19429     19430
     19425     19429     19431     19425     19429     19432     19426     19425     19427
     19426     19425     19428     19426     19425     19429     19427     19425     19428
     19427     19425     19429     19428     19425     19429     19429     19432     19433
     19429     19432     19434     19429     19432     19438     19430     19429     19431
     19430     19429     19432     19431     19429     19432     19432     19438     19435
     19433     19432     19434     19433     19432     19438     19434     19432     19438
     19435     19439     19440     19436     19435     19437     19436     19435     19438
     19436     19435     19439     19437     19435     19438     19437     19435     19439
     19438     19435     19439     19439     19440     19441     19439     19440     19442
     19439     19440     19443     19440     19443     19444     19440     19443     19445
     19440     19443     19451     19441     19440     19442     19441     19440     19443
     19442     19440     19443     19443     19445     19446     19443     19451     19452
     19443     19451     19453     19443     19451     19454     19444     19443     19445
     19444     19443     19451     19445     19443     19451     19445     19446     19447
     19445     19446     19448     19446     19448     19449     19446     19448     19450
     19446     19448     19460     19447     19446     19448     19448     19460     19461
     19448     19460     19462     19448     19460     19463     19449     19448     19450
     19449     19448     19460     19450     19448     19460     19451     19454     19455
     19452     19451     19453     19452     19451     19454     19453     19451     19454
     19454     19455     19456     19454     19455     19457     19455     19457     19458
     19455     19457     19459     19455     19457     19507     19456     19455     19457
     19457     19507     19508     19457     19507     19509     19457     19507     19510
     19458     19457     19459     19458     19457     19507     19459     19457     19507
     19460     19463     19464     19460     19463     19465     19460     19463     19466
     19461     19460     19462     19461     19460     19463     19462     19460     19463
     19463     19466     19467     19463     19466     19468     19464     19463     19465
     19464     19463     19466     19465     19463     19466     19466     19468     19469
     19466     19468     19470     19467     19466     19468     19468     19470     19471
     19468     19470     19472     19468     19470     19473     19469     19468     19470
     19470     19473     19474     19470     19473     19475     19471     19470     19472
     19471     19470     19473     19472     19470     19473     19473     19475     19476
     19473     19475     19477     19474     19473     19475     19475     19477     19478
     19475     19477     19479     19475     19477     19480     19476     19475     19477
     19477     19480     19481     19477     19480     19482     19478     19477     19479
     19478     19477     19480     19479     19477     19480     19480     19482     19483
     19480     19482     19484     19481     19480     19482     19482     19484     19485
     19482     19484     19486     19482     19484     19487     19483     19482     19484
     19484     19487     19488     19484     19487     19489     19485     19484     19486
     19485     19484     19487     19486     19484     19487     19487     19489     19490
     19487     19489     19491     19488     19487     19489     19489     19491     19492
     19489     19491     19493     19489     19491     19494     19490     19489     19491
     19491     19494     19495     19491     19494     19496     19491     19494     19497
     19492     19491     19493     19492     19491     19494     19493     19491     19494
     19494     19497     19498     19494     19497     19499     19494     19497     19500
     19495     19494     19496     19495     19494     19497     19496     19494     19497
     19497     19500     19501     19497     19500     19502     19497     19500     19503
     19498     19497     19499     19498     19497     19500     19499     19497     19500
     19500     19503     19504     19500     19503     19505     19500     19503     19506
     19501     19500     19502     19501     19500     19503     19502     19500     19503
     19504     19503     19505     19504     19503     19506     19505     19503     19506
     19507     19510     19511     19507     19510     19512     19507     19510     19513
     19508     19507     19509     19508     19507     19510     19509     19507     19510
     19510     19513     19514     19510     19513     19515     19510     19513     19516
     19511     19510     19512     19511     19510     19513     19512     19510     19513
     19513     19516     19517     19513     19516     19518     19513     19516     19519
     19514     19513     19515     19514     19513     19516     19515     19513     19516
     19516     19519     19520     19516     19519     19521     19516     19519     19522
     19517     19516     19518     19517     19516     19519     19518     19516     19519
     19519     19522     19523     19519     19522     19524     19519     19522     19525
     19520     19519     19521     19520     19519     19522     19521     19519     19522
     19522     19525     19526     19522     19525     19527     19522     19525     19528
     19523     19522     19524     19523     19522     19525     19524     19522     19525
     19525     19528     19529     19525     19528     19530     19525     19528     19531
     19526     19525     19527     19526     19525     19528     19527     19525     19528
     19528     19531     19532     19528     19531     19533     19528     19531     19534
     19529     19528     19530     19529     19528     19531     19530     19528     19531
     19531     19534     19535     19531     19534     19536     19531     19534     19537
     19532     19531     19533     19532     19531     19534     19533     19531     19534
     19534     19537     19538     19534     19537     19539     19534     19537     19540
     19535     19534     19536     19535     19534     19537     19536     19534     19537
     19537     19540     19541     19537     19540     19542     19537     19540     19543
     19538     19537     19539     19538     19537     19540     19539     19537     19540
     19540     19543     19544     19540     19543     19545     19540     19543     19546
     19541     19540     19542     19541     19540     19543     19542     19540     19543
     19543     19546     19547     19543     19546     19548     19543     19546     19549
     19544     19543     19545     19544     19543     19546     19545     19543     19546
     19546     19549     19550     19546     19549     19551     19546     19549     19552
     19547     19546     19548     19547     19546     19549     19548     19546     19549
     19549     19552     19553     19549     19552     19554     19549     19552     19555
     19550     19549     19551     19550     19549     19552     19551     19549     19552
     19553     19552     19554     19553     19552     19555     19554     19552     19555
     19556     19557     19558     19556     19557     19559     19556     19557     19560
     19556     19561     19562     19556     19561     19563     19556     19561     19564
     19556     19565     19566     19556     19565     19567     19556     19565     19568
     19556     19569     19570     19556     19569     19571     19556     19569     19572
     19557     19556     19561     19557     19556     19565     19557     19556     19569
     19558     19557     19559     19558     19557     19560     19559     19557     19560
     19561     19556     19565     19561     19556     19569     19562     19561     19563
     19562     19561     19564     19563     19561     19564     19565     19556     19569
     19566     19565     19567     19566     19565     19568     19567     19565     19568
     19569     19572     19573     19569     19572     19574     19569     19572     19579
     19570     19569     19571     19570     19569     19572     19571     19569     19572
     19572     19579     19575     19573     19572     19574     19573     19572     19579
     19574     19572     19579     19575     19578     19580     19576     19575     19577
     19576     19575     19578     19576     19575     19579     19577     19575     19578
     19577     19575     19579     19578     19575     19579     19578     19580     19581
     19578     19580     19582     19578     19580     19585     19580     19585     19583
     19580     19585     19586     19580     19585     19587     19581     19580     19582
     19581     19580     19585     19582     19580     19585     19583     19585     19586
     19583     19585     19587     19583     19635     19636     19583     19635     19637
     19584     19583     19585     19584     19583     19635     19585     19583     19635
     19585     19587     19588     19585     19587     19589     19585     19587     19591
     19586     19585     19587     19587     19589     19590     19587     19591     19592
     19587     19591     19593     19588     19587     19589     19588     19587     19591
     19589     19587     19591     19591     19593     19594     19591     19593     19595
     19592     19591     19593     19593     19595     19596     19593     19595     19597
     19593     19595     19598     19594     19593     19595     19595     19598     19599
     19595     19598     19600     19595     19598     19601     19596     19595     19597
     19596     19595     19598     19597     19595     19598     19598     19601     19602
     19598     19601     19603     19598     19601     19604     19599     19598     19600
     19599     19598     19601     19600     19598     19601     19601     19604     19605
     19601     19604     19606     19601     19604     19607     19602     19601     19603
     19602     19601     19604     19603     19601     19604     19604     19607     19608
     19604     19607     19609     19604     19607     19610     19605     19604     19606
     19605     19604     19607     19606     19604     19607     19607     19610     19611
     19607     19610     19612     19607     19610     19613     19608     19607     19609
     19608     19607     19610     19609     19607     19610     19610     19613     19614
     19610     19613     19615     19610     19613     19616     19611     19610     19612
     19611     19610     19613     19612     19610     19613     19613     19616     19617
     19613     19616     19618     19613     19616     19619     19614     19613     19615
     19614     19613     19616     19615     19613     19616     19616     19619     19620
     19616     19619     19621     19616     19619     19622     19617     19616     19618
     19617     19616     19619     19618     19616     19619     19619     19622     19623
     19619     19622     19624     19619     19622     19625     19620     19619     19621
     19620     19619     19622     19621     19619     19622     19622     19625     19626
     19622     19625     19627     19622     19625     19628     19623     19622     19624
     19623     19622     19625     19624     19622     19625     19625     19628     19629
     19625     19628     19630     19625     19628     19631     19626     19625     19627
     19626     19625     19628     19627     19625     19628     19628     19631     19632
     19628     19631     19633     19628     19631     19634     19629     19628     19630
     19629     19628     19631     19630     19628     19631     19632     19631     19633
     19632     19631     19634     19633     19631     19634     19635     19637     19638
     19635     19637     19639     19635     19637     19640     19636     19635     19637
     19637     19640     19641     19637     19640     19642     19637     19640     19643
     19638     19637     19639     19638     19637     19640     19639     19637     19640
     19640     19643     19644     19640     19643     19645     19640     19643     19646
     19641     19640     19642     19641     19640     19643     19642     19640     19643
     19643     19646     19647     19643     19646     19648     19643     19646     19649
     19644     19643     19645     19644     19643     19646     19645     19643     19646
     19646     19649     19650     19646     19649     19651     19646     19649     19652
     19647     19646     19648     19647     19646     19649     19648     19646     19649
     19649     19652     19653     19649     19652     19654     19649     19652     19655
     19650     19649     19651     19650     19649     19652     19651     19649     19652
     19652     19655     19656     19652     19655     19657     19652     19655     19658
     19653     19652     19654     19653     19652     19655     19654     19652     19655
     19655     19658     19659     19655     19658     19660     19656     19655     19657
     19656     19655     19658     19657     19655     19658     19658     19660     19661
     19658     19660     19662     19659     19658     19660     19660     19662     19663
     19660     19662     19664     19660     19662     19665     19661     19660     19662
     19662     19665     19666     19662     19665     19667     19662     19665     19668
     19663     19662     19664     19663     19662     19665     19664     19662     19665
     19665     19668     19669     19665     19668     19670     19665     19668     19671
     19666     19665     19667     19666     19665     19668     19667     19665     19668
     19668     19671     19672     19668     19671     19673     19668     19671     19674
     19669     19668     19670     19669     19668     19671     19670     19668     19671
     19671     19674     19675     19671     19674     19676     19671     19674     19677
     19672     19671     19673     19672     19671     19674     19673     19671     19674
     19674     19677     19678     19674     19677     19679     19674     19677     19680
     19675     19674     19676     19675     19674     19677     19676     19674     19677
     19677     19680     19681     19677     19680     19682     19677     19680     19683
     19678     19677     19679     19678     19677     19680     19679     19677     19680
     19680     19683     19684     19680     19683     19685     19680     19683     19686
     19681     19680     19682     19681     19680     19683     19682     19680     19683
     19684     19683     19685     19684     19683     19686     19685     19683     19686
     19687     19688     19689     19687     19688     19690     19687     19688     19691
     19687     19692     19693     19687     19692     19694     19687     19692     19695
     19687     19696     19697     19687     19696     19698     19687     19696     19699
     19687     19700     19701     19687     19700     19702     19687     19700     19703
     19688     19687     19692     19688     19687     19696     19688     19687     19700
     19689     19688     19690     19689     19688     19691     19690     19688     19691
     19692     19687     19696     19692     19687     19700     19693     19692     19694
     19693     19692     19695     19694     19692     19695     19696     19687     19700
     19697     19696     19698     19697     19696     19699     19698     19696     19699
     19700     19703     19704     19700     19703     19705     19700     19703     19709
     19701     19700     19702     19701     19700     19703     19702     19700     19703
     19703     19709     19706     19704     19703     19705     19704     19703     19709
     19705     19703     19709     19706     19710     19711     19707     19706     19708
     19707     19706     19709     19707     19706     19710     19708     19706     19709
     19708     19706     19710     19709     19706     19710     19710     19711     19712
     19710     19711     19713     19710     19711     19714     19711     19714     19715
     19711     19714     19716     19711     19714     19722     19712     19711     19713
     19712     19711     19714     19713     19711     19714     19714     19716     19717
     19714     19722     19723     19714     19722     19724     19714     19722     19725
     19715     19714     19716     19715     19714     19722     19716     19714     19722
     19716     19717     19718     19716     19717     19719     19717     19719     19720
     19717     19719     19721     19717     19719     19731     19718     19717     19719
     19719     19731     19732     19719     19731     19733     19719     19731     19734
     19720     19719     19721     19720     19719     19731     19721     19719     19731
     19722     19725     19726     19723     19722     19724     19723     19722     19725
     19724     19722     19725     19725     19726     19727     19725     19726     19728
     19726     19728     19729     19726     19728     19730     19726     19728     19776
     19727     19726     19728     19728     19776     19777     19728     19776     19778
     19728     19776     19779     19729     19728     19730     19729     19728     19776
     19730     19728     19776     19731     19734     19735     19731     19734     19736
     19731     19734     19737     19732     19731     19733     19732     19731     19734
     19733     19731     19734     19734     19737     19738     19734     19737     19739
     19734     19737     19740     19735     19734     19736     19735     19734     19737
     19736     19734     19737     19737     19740     19741     19737     19740     19742
     19737     19740     19743     19738     19737     19739     19738     19737     19740
     19739     19737     19740     19740     19743     19744     19740     19743     19745
     19740     19743     19746     19741     19740     19742     19741     19740     19743
     19742     19740     19743     19743     19746     19747     19743     19746     19748
     19743     19746     19749     19744     19743     19745     19744     19743     19746
     19745     19743     19746     19746     19749     19750     19746     19749     19751
     19747     19746     19748     19747     19746     19749     19748     19746     19749
     19749     19751     19752     19749     19751     19753     19750     19749     19751
     19751     19753     19754     19751     19753     19755     19751     19753     19756
     19752     19751     19753     19753     19756     19757     19753     19756     19758
     19754     19753     19755     19754     19753     19756     19755     19753     19756
     19756     19758     19759     19756     19758     19760     19757     19756     19758
     19758     19760     19761     19758     19760     19762     19758     19760     19763
     19759     19758     19760     19760     19763     19764     19760     19763     19765
     19760     19763     19766     19761     19760     19762     19761     19760     19763
     19762     19760     19763     19763     19766     19767     19763     19766     19768
     19763     19766     19769     19764     19763     19765     19764     19763     19766
     19765     19763     19766     19766     19769     19770     19766     19769     19771
     19766     19769     19772     19767     19766     19768     19767     19766     19769
     19768     19766     19769     19769     19772     19773     19769     19772     19774
     19769     19772     19775     19770     19769     19771     19770     19769     19772
     19771     19769     19772     19773     19772     19774     19773     19772     19775
     19774     19772     19775     19776     19779     19780     19776     19779     19781
     19776     19779     19782     19777     19776     19778     19777     19776     19779
     19778     19776     19779     19779     19782     19783     19779     19782     19784
     19779     19782     19785     19780     19779     19781     19780     19779     19782
     19781     19779     19782     19782     19785     19786     19782     19785     19787
     19782     19785     19788     19783     19782     19784     19783     19782     19785
     19784     19782     19785     19785     19788     19789     19785     19788     19790
     19785     19788     19791     19786     19785     19787     19786     19785     19788
     19787     19785     19788     19788     19791     19792     19788     19791     19793
     19788     19791     19794     19789     19788     19790     19789     19788     19791
     19790     19788     19791     19791     19794     19795     19791     19794     19796
     19791     19794     19797     19792     19791     19793     19792     19791     19794
     19793     19791     19794     19794     19797     19798     19794     19797     19799
     19794     19797     19800     19795     19794     19796     19795     19794     19797
     19796     19794     19797     19797     19800     19801     19797     19800     19802
     19797     19800     19803     19798     19797     19799     19798     19797     19800
     19799     19797     19800     19800     19803     19804     19800     19803     19805
     19800     19803     19806     19801     19800     19802     19801     19800     19803
     19802     19800     19803     19803     19806     19807     19803     19806     19808
     19803     19806     19809     19804     19803     19805     19804     19803     19806
     19805     19803     19806     19806     19809     19810     19806     19809     19811
     19806     19809     19812     19807     19806     19808     19807     19806     19809
     19808     19806     19809     19809     19812     19813     19809     19812     19814
     19809     19812     19815     19810     19809     19811     19810     19809     19812
     19811     19809     19812     19812     19815     19816     19812     19815     19817
     19812     19815     19818     19813     19812     19814     19813     19812     19815
     19814     19812     19815     19815     19818     19819     19815     19818     19820
     19815     19818     19821     19816     19815     19817     19816     19815     19818
     19817     19815     19818     19818     19821     19822     19818     19821     19823
     19818     19821     19824     19819     19818     19820     19819     19818     19821
     19820     19818     19821     19822     19821     19823     19822     19821     19824
     19823     19821     19824     19825     19827     19828     19825     19829     19830
     19825     19829     19831     19825     19829     19832     19825     19871     19868
     19825     19871     19872     19825     19871     19873     19826     19825     19827
     19826     19825     19829     19826     19825     19871     19827     19825     19829
     19827     19825     19871     19829     19825     19871     19829     19832     19833
     19829     19832     19863     19830     19829     19831     19830     19829     19832
     19831     19829     19832     19832     19833     19834     19832     19833     19835
     19832     19863     19861     19832     19863     19864     19832     19863     19868
     19833     19832     19863     19833     19835     19836     19833     19835     19837
     19833     19835     19838     19834     19833     19835     19835     19838     19839
     19835     19838     19840     19835     19838     19861     19836     19835     19837
     19836     19835     19838     19837     19835     19838     19838     19840     19841
     19838     19840     19842     19838     19840     19850     19838     19861     19858
     19838     19861     19862     19838     19861     19863     19839     19838     19840
     19839     19838     19861     19840     19838     19861     19840     19842     19843
     19840     19842     19844     19840     19842     19845     19840     19850     19848
     19840     19850     19851     19840     19850     19855     19841     19840     19842
     19841     19840     19850     19842     19840     19850     19842     19845     19846
     19842     19845     19847     19842     19845     19848     19843     19842     19844
     19843     19842     19845     19844     19842     19845     19845     19848     19849
     19845     19848     19850     19845     19848     19874     19846     19845     19847
     19846     19845     19848     19847     19845     19848     19848     19850     19851
     19848     19850     19855     19848     19874     19875     19848     19874     19876
     19848     19874     19880     19849     19848     19850     19849     19848     19874
     19850     19848     19874     19850     19851     19852     19850     19851     19853
     19850     19851     19854     19850     19855     19856     19850     19855     19857
     19850     19855     19858     19851     19850     19855     19852     19851     19853
     19852     19851     19854     19853     19851     19854     19855     19858     19859
     19855     19858     19860     19855     19858     19861     19856     19855     19857
     19856     19855     19858     19857     19855     19858     19858     19861     19862
     19858     19861     19863     19859     19858     19860     19859     19858     19861
     19860     19858     19861     19861     19863     19864     19861     19863     19868
     19862     19861     19863     19863     19864     19865     19863     19864     19866
     19863     19864     19867     19863     19868     19869     19863     19868     19870
     19863     19868     19871     19864     19863     19868     19865     19864     19866
     19865     19864     19867     19866     19864     19867     19868     19871     19872
     19868     19871     19873     19869     19868     19870     19869     19868     19871
     19870     19868     19871     19872     19871     19873     19874     19876     19877
     19874     19876     19878     19874     19876     19879     19874     19880     19881
     19874     19880     19882     19874     19880     19883     19875     19874     19876
     19875     19874     19880     19876     19874     19880     19877     19876     19878
     19877     19876     19879     19878     19876     19879     19880     19883     19884
     19880     19883     19885     19880     19883     19886     19881     19880     19882
     19881     19880     19883     19882     19880     19883     19883     19886     19887
     19883     19886     19888     19883     19886     19889     19884     19883     19885
     19884     19883     19886     19885     19883     19886     19886     19889     19890
     19886     19889     19891     19886     19889     19895     19887     19886     19888
     19887     19886     19889     19888     19886     19889     19889     19891     19892
     19889     19891     19893     19889     19891     19894     19889     19895     19896
     19889     19895     19897     19889     19895     19898     19890     19889     19891
     19890     19889     19895     19891     19889     19895     19892     19891     19893
     19892     19891     19894     19893     19891     19894     19896     19895     19897
     19896     19895     19898     19897     19895     19898     19899     19900     19901
     19899     19900     19902     19899     19900     19915     19899     19903     19904
     19899     19903     19905     19899     19903     19906     19899     19907     19908
     19899     19907     19909     19899     19907     19910     19899     19911     19912
     19899     19911     19913     19899     19911     19914     19900     19899     19903
     19900     19899     19907     19900     19899     19911     19900     19915     19916
     19900     19915     19917     19900     19915     19921     19901     19900     19902
     19901     19900     19915     19902     19900     19915     19903     19899     19907
     19903     19899     19911     19904     19903     19905     19904     19903     19906
     19905     19903     19906     19907     19899     19911     19908     19907     19909
     19908     19907     19910     19909     19907     19910     19912     19911     19913
     19912     19911     19914     19913     19911     19914     19915     19921     19918
     19916     19915     19917     19916     19915     19921     19917     19915     19921
     19918     19922     19923     19919     19918     19920     19919     19918     19921
     19919     19918     19922     19920     19918     19921     19920     19918     19922
     19921     19918     19922     19922     19923     19924     19922     19923     19925
     19922     19923     19926     19923     19926     19927     19923     19926     19928
     19923     19926     19934     19924     19923     19925     19924     19923     19926
     19925     19923     19926     19926     19928     19929     19926     19934     19935
     19926     19934     19936     19926     19934     19937     19927     19926     19928
     19927     19926     19934     19928     19926     19934     19928     19929     19930
     19928     19929     19931     19929     19931     19932     19929     19931     19933
     19929     19931     19943     19930     19929     19931     19931     19943     19944
     19931     19943     19945     19931     19943     19946     19932     19931     19933
     19932     19931     19943     19933     19931     19943     19934     19937     19938
     19935     19934     19936     19935     19934     19937     19936     19934     19937
     19937     19938     19939     19937     19938     19940     19938     19940     19941
     19938     19940     19942     19938     19940     19990     19939     19938     19940
     19940     19990     19991     19940     19990     19992     19940     19990     19993
     19941     19940     19942     19941     19940     19990     19942     19940     19990
     19943     19946     19947     19943     19946     19948     19943     19946     19949
     19944     19943     19945     19944     19943     19946     19945     19943     19946
     19946     19949     19950     19946     19949     19951     19946     19949     19952
     19947     19946     19948     19947     19946     19949     19948     19946     19949
     19949     19952     19953     19949     19952     19954     19949     19952     19955
     19950     19949     19951     19950     19949     19952     19951     19949     19952
     19952     19955     19956     19952     19955     19957     19952     19955     19958
     19953     19952     19954     19953     19952     19955     19954     19952     19955
     19955     19958     19959     19955     19958     19960     19955     19958     19961
     19956     19955     19957     19956     19955     19958     19957     19955     19958
     19958     19961     19962     19958     19961     19963     19959     19958     19960
     19959     19958     19961     19960     19958     19961     19961     19963     19964
     19961     19963     19965     19962     19961     19963     19963     19965     19966
     19963     19965     19967     19963     19965     19968     19964     19963     19965
     19965     19968     19969     19965     19968     19970     19965     19968     19971
     19966     19965     19967     19966     19965     19968     19967     19965     19968
     19968     19971     19972     19968     19971     19973     19968     19971     19974
     19969     19968     19970     19969     19968     19971     19970     19968     19971
     19971     19974     19975     19971     19974     19976     19971     19974     19977
     19972     19971     19973     19972     19971     19974     19973     19971     19974
     19974     19977     19978     19974     19977     19979     19974     19977     19980
     19975     19974     19976     19975     19974     19977     19976     19974     19977
     19977     19980     19981     19977     19980     19982     19977     19980     19983
     19978     19977     19979     19978     19977     19980     19979     19977     19980
     19980     19983     19984     19980     19983     19985     19980     19983     19986
     19981     19980     19982     19981     19980     19983     19982     19980     19983
     19983     19986     19987     19983     19986     19988     19983     19986     19989
     19984     19983     19985     19984     19983     19986     19985     19983     19986
     19987     19986     19988     19987     19986     19989     19988     19986     19989
     19990     19993     19994     19990     19993     19995     19990     19993     19996
     19991     19990     19992     19991     19990     19993     19992     19990     19993
     19993     19996     19997     19993     19996     19998     19993     19996     19999
     19994     19993     19995     19994     19993     19996     19995     19993     19996
     19996     19999     20000     19996     19999     20001     19996     19999     20002
     19997     19996     19998     19997     19996     19999     19998     19996     19999
     19999     20002     20003     19999     20002     20004     19999     20002     20005
     20000     19999     20001     20000     19999     20002     20001     19999     20002
     20002     20005     20006     20002     20005     20007     20002     20005     20008
     20003     20002     20004     20003     20002     20005     20004     20002     20005
     20005     20008     20009     20005     20008     20010     20005     20008     20011
     20006     20005     20007     20006     20005     20008     20007     20005     20008
     20008     20011     20012     20008     20011     20013     20008     20011     20014
     20009     20008     20010     20009     20008     20011     20010     20008     20011
     20011     20014     20015     20011     20014     20016     20011     20014     20017
     20012     20011     20013     20012     20011     20014     20013     20011     20014
     20014     20017     20018     20014     20017     20019     20014     20017     20020
     20015     20014     20016     20015     20014     20017     20016     20014     20017
     20017     20020     20021     20017     20020     20022     20017     20020     20023
     20018     20017     20019     20018     20017     20020     20019     20017     20020
     20020     20023     20024     20020     20023     20025     20020     20023     20026
     20021     20020     20022     20021     20020     20023     20022     20020     20023
     20023     20026     20027     20023     20026     20028     20023     20026     20029
     20024     20023     20025     20024     20023     20026     20025     20023     20026
     20026     20029     20030     20026     20029     20031     20026     20029     20032
     20027     20026     20028     20027     20026     20029     20028     20026     20029
     20030     20029     20031     20030     20029     20032     20031     20029     20032
     20033     20035     20036     20033     20037     20038     20033     20037     20039
     20033     20037     20040     20033     20079     20076     20033     20079     20080
     20033     20079     20081     20034     20033     20035     20034     20033     20037
     20034     20033     20079     20035     20033     20037     20035     20033     20079
     20037     20033     20079     20037     20040     20041     20037     20040     20071
     20038     20037     20039     20038     20037     20040     20039     20037     20040
     20040     20041     20042     20040     20041     20043     20040     20071     20069
     20040     20071     20072     20040     20071     20076     20041     20040     20071
     20041     20043     20044     20041     20043     20045     20041     20043     20046
     20042     20041     20043     20043     20046     20047     20043     20046     20048
     20043     20046     20069     20044     20043     20045     20044     20043     20046
     20045     20043     20046     20046     20048     20049     20046     20048     20050
     20046     20048     20058     20046     20069     20066     20046     20069     20070
     20046     20069     20071     20047     20046     20048     20047     20046     20069
     20048     20046     20069     20048     20050     20051     20048     20050     20052
     20048     20050     20053     20048     20058     20056     20048     20058     20059
     20048     20058     20063     20049     20048     20050     20049     20048     20058
     20050     20048     20058     20050     20053     20054     20050     20053     20055
     20050     20053     20056     20051     20050     20052     20051     20050     20053
     20052     20050     20053     20053     20056     20057     20053     20056     20058
     20053     20056     20082     20054     20053     20055     20054     20053     20056
     20055     20053     20056     20056     20058     20059     20056     20058     20063
     20056     20082     20083     20056     20082     20084     20056     20082     20088
     20057     20056     20058     20057     20056     20082     20058     20056     20082
     20058     20059     20060     20058     20059     20061     20058     20059     20062
     20058     20063     20064     20058     20063     20065     20058     20063     20066
     20059     20058     20063     20060     20059     20061     20060     20059     20062
     20061     20059     20062     20063     20066     20067     20063     20066     20068
     20063     20066     20069     20064     20063     20065     20064     20063     20066
     20065     20063     20066     20066     20069     20070     20066     20069     20071
     20067     20066     20068     20067     20066     20069     20068     20066     20069
     20069     20071     20072     20069     20071     20076     20070     20069     20071
     20071     20072     20073     20071     20072     20074     20071     20072     20075
     20071     20076     20077     20071     20076     20078     20071     20076     20079
     20072     20071     20076     20073     20072     20074     20073     20072     20075
     20074     20072     20075     20076     20079     20080     20076     20079     20081
     20077     20076     20078     20077     20076     20079     20078     20076     20079
     20080     20079     20081     20082     20084     20085     20082     20084     20086
     20082     20084     20087     20082     20088     20089     20082     20088     20090
     20082     20088     20091     20083     20082     20084     20083     20082     20088
     20084     20082     20088     20085     20084     20086     20085     20084     20087
     20086     20084     20087     20088     20091     20092     20088     20091     20093
     20088     20091     20094     20089     20088     20090     20089     20088     20091
     20090     20088     20091     20091     20094     20095     20091     20094     20096
     20091     20094     20097     20092     20091     20093     20092     20091     20094
     20093     20091     20094     20094     20097     20098     20094     20097     20099
     20094     20097     20103     20095     20094     20096     20095     20094     20097
     20096     20094     20097     20097     20099     20100     20097     20099     20101
     20097     20099     20102     20097     20103     20104     20097     20103     20105
     20097     20103     20106     20098     20097     20099     20098     20097     20103
     20099     20097     20103     20100     20099     20101     20100     20099     20102
     20101     20099     20102     20104     20103     20105     20104     20103     20106
     20105     20103     20106     20107     20108     20109     20107     20108     20110
     20107     20108     20123     20107     20111     20112     20107     20111     20113
     20107     20111     20114     20107     20115     20116     20107     20115     20117
     20107     20115     20118     20107     20119     20120     20107     20119     20121
     20107     20119     20122     20108     20107     20111     20108     20107     20115
     20108     20107     20119     20108     20123     20124     20108     20123     20125
     20108     20123     20129     20109     20108     20110     20109     20108     20123
     20110     20108     20123     20111     20107     20115     20111     20107     20119
     20112     20111     20113     20112     20111     20114     20113     20111     20114
     20115     20107     20119     20116     20115     20117     20116     20115     20118
     20117     20115     20118     20120     20119     20121     20120     20119     20122
     20121     20119     20122     20123     20129     20126     20124     20123     20125
     20124     20123     20129     20125     20123     20129     20126     20130     20131
     20127     20126     20128     20127     20126     20129     20127     20126     20130
     20128     20126     20129     20128     20126     20130     20129     20126     20130
     20130     20131     20132     20130     20131     20133     20130     20131     20134
     20131     20134     20135     20131     20134     20136     20131     20134     20142
     20132     20131     20133     20132     20131     20134     20133     20131     20134
     20134     20136     20137     20134     20142     20143     20134     20142     20144
     20134     20142     20145     20135     20134     20136     20135     20134     20142
     20136     20134     20142     20136     20137     20138     20136     20137     20139
     20137     20139     20140     20137     20139     20141     20137     20139     20151
     20138     20137     20139     20139     20151     20152     20139     20151     20153
     20139     20151     20154     20140     20139     20141     20140     20139     20151
     20141     20139     20151     20142     20145     20146     20143     20142     20144
     20143     20142     20145     20144     20142     20145     20145     20146     20147
     20145     20146     20148     20146     20148     20149     20146     20148     20150
     20146     20148     20198     20147     20146     20148     20148     20198     20199
     20148     20198     20200     20148     20198     20201     20149     20148     20150
     20149     20148     20198     20150     20148     20198     20151     20154     20155
     20151     20154     20156     20151     20154     20157     20152     20151     20153
     20152     20151     20154     20153     20151     20154     20154     20157     20158
     20154     20157     20159     20155     20154     20156     20155     20154     20157
     20156     20154     20157     20157     20159     20160     20157     20159     20161
     20158     20157     20159     20159     20161     20162     20159     20161     20163
     20159     20161     20164     20160     20159     20161     20161     20164     20165
     20161     20164     20166     20162     20161     20163     20162     20161     20164
     20163     20161     20164     20164     20166     20167     20164     20166     20168
     20165     20164     20166     20166     20168     20169     20166     20168     20170
     20166     20168     20171     20167     20166     20168     20168     20171     20172
     20168     20171     20173     20169     20168     20170     20169     20168     20171
     20170     20168     20171     20171     20173     20174     20171     20173     20175
     20172     20171     20173     20173     20175     20176     20173     20175     20177
     20173     20175     20178     20174     20173     20175     20175     20178     20179
     20175     20178     20180     20176     20175     20177     20176     20175     20178
     20177     20175     20178     20178     20180     20181     20178     20180     20182
     20179     20178     20180     20180     20182     20183     20180     20182     20184
     20180     20182     20185     20181     20180     20182     20182     20185     20186
     20182     20185     20187     20182     20185     20188     20183     20182     20184
     20183     20182     20185     20184     20182     20185     20185     20188     20189
     20185     20188     20190     20185     20188     20191     20186     20185     20187
     20186     20185     20188     20187     20185     20188     20188     20191     20192
     20188     20191     20193     20188     20191     20194     20189     20188     20190
     20189     20188     20191     20190     20188     20191     20191     20194     20195
     20191     20194     20196     20191     20194     20197     20192     20191     20193
     20192     20191     20194     20193     20191     20194     20195     20194     20196
     20195     20194     20197     20196     20194     20197     20198     20201     20202
     20198     20201     20203     20198     20201     20204     20199     20198     20200
     20199     20198     20201     20200     20198     20201     20201     20204     20205
     20201     20204     20206     20201     20204     20207     20202     20201     20203
     20202     20201     20204     20203     20201     20204     20204     20207     20208
     20204     20207     20209     20204     20207     20210     20205     20204     20206
     20205     20204     20207     20206     20204     20207     20207     20210     20211
     20207     20210     20212     20207     20210     20213     20208     20207     20209
     20208     20207     20210     20209     20207     20210     20210     20213     20214
     20210     20213     20215     20210     20213     20216     20211     20210     20212
     20211     20210     20213     20212     20210     20213     20213     20216     20217
     20213     20216     20218     20213     20216     20219     20214     20213     20215
     20214     20213     20216     20215     20213     20216     20216     20219     20220
     20216     20219     20221     20216     20219     20222     20217     20216     20218
     20217     20216     20219     20218     20216     20219     20219     20222     20223
     20219     20222     20224     20219     20222     20225     20220     20219     20221
     20220     20219     20222     20221     20219     20222     20222     20225     20226
     20222     20225     20227     20222     20225     20228     20223     20222     20224
     20223     20222     20225     20224     20222     20225     20225     20228     20229
     20225     20228     20230     20225     20228     20231     20226     20225     20227
     20226     20225     20228     20227     20225     20228     20228     20231     20232
     20228     20231     20233     20228     20231     20234     20229     20228     20230
     20229     20228     20231     20230     20228     20231     20231     20234     20235
     20231     20234     20236     20231     20234     20237     20232     20231     20233
     20232     20231     20234     20233     20231     20234     20234     20237     20238
     20234     20237     20239     20234     20237     20240     20235     20234     20236
     20235     20234     20237     20236     20234     20237     20237     20240     20241
     20237     20240     20242     20237     20240     20243     20238     20237     20239
     20238     20237     20240     20239     20237     20240     20240     20243     20244
     20240     20243     20245     20240     20243     20246     20241     20240     20242
     20241     20240     20243     20242     20240     20243     20244     20243     20245
     20244     20243     20246     20245     20243     20246     20247     20251     20252
     20247     20251     20253     20247     20251     20254     20248     20247     20249
     20248     20247     20250     20248     20247     20251     20249     20247     20250
     20249     20247     20251     20250     20247     20251     20251     20254     20255
     20251     20254     20256     20251     20254     20260     20252     20251     20253
     20252     20251     20254     20253     20251     20254     20254     20260     20257
     20255     20254     20256     20255     20254     20260     20256     20254     20260
     20257     20261     20262     20258     20257     20259     20258     20257     20260
     20258     20257     20261     20259     20257     20260     20259     20257     20261
     20260     20257     20261     20261     20262     20263     20261     20262     20264
     20261     20262     20265     20262     20265     20266     20262     20265     20267
     20262     20265     20273     20263     20262     20264     20263     20262     20265
     20264     20262     20265     20265     20267     20268     20265     20273     20274
     20265     20273     20275     20265     20273     20276     20266     20265     20267
     20266     20265     20273     20267     20265     20273     20267     20268     20269
     20267     20268     20270     20268     20270     20271     20268     20270     20272
     20268     20270     20282     20269     20268     20270     20270     20282     20283
     20270     20282     20284     20270     20282     20285     20271     20270     20272
     20271     20270     20282     20272     20270     20282     20273     20276     20277
     20274     20273     20275     20274     20273     20276     20275     20273     20276
     20276     20277     20278     20276     20277     20279     20277     20279     20280
     20277     20279     20281     20277     20279     20329     20278     20277     20279
     20279     20329     20330     20279     20329     20331     20279     20329     20332
     20280     20279     20281     20280     20279     20329     20281     20279     20329
     20282     20285     20286     20282     20285     20287     20282     20285     20288
     20283     20282     20284     20283     20282     20285     20284     20282     20285
     20285     20288     20289     20285     20288     20290     20286     20285     20287
     20286     20285     20288     20287     20285     20288     20288     20290     20291
     20288     20290     20292     20289     20288     20290     20290     20292     20293
     20290     20292     20294     20290     20292     20295     20291     20290     20292
     20292     20295     20296     20292     20295     20297     20293     20292     20294
     20293     20292     20295     20294     20292     20295     20295     20297     20298
     20295     20297     20299     20296     20295     20297     20297     20299     20300
     20297     20299     20301     20297     20299     20302     20298     20297     20299
     20299     20302     20303     20299     20302     20304     20300     20299     20301
     20300     20299     20302     20301     20299     20302     20302     20304     20305
     20302     20304     20306     20303     20302     20304     20304     20306     20307
     20304     20306     20308     20304     20306     20309     20305     20304     20306
     20306     20309     20310     20306     20309     20311     20307     20306     20308
     20307     20306     20309     20308     20306     20309     20309     20311     20312
     20309     20311     20313     20310     20309     20311     20311     20313     20314
     20311     20313     20315     20311     20313     20316     20312     20311     20313
     20313     20316     20317     20313     20316     20318     20313     20316     20319
     20314     20313     20315     20314     20313     20316     20315     20313     20316
     20316     20319     20320     20316     20319     20321     20316     20319     20322
     20317     20316     20318     20317     20316     20319     20318     20316     20319
     20319     20322     20323     20319     20322     20324     20319     20322     20325
     20320     20319     20321     20320     20319     20322     20321     20319     20322
     20322     20325     20326     20322     20325     20327     20322     20325     20328
     20323     20322     20324     20323     20322     20325     20324     20322     20325
     20326     20325     20327     20326     20325     20328     20327     20325     20328
     20329     20332     20333     20329     20332     20334     20329     20332     20335
     20330     20329     20331     20330     20329     20332     20331     20329     20332
     20332     20335     20336     20332     20335     20337     20332     20335     20338
     20333     20332     20334     20333     20332     20335     20334     20332     20335
     20335     20338     20339     20335     20338     20340     20335     20338     20341
     20336     20335     20337     20336     20335     20338     20337     20335     20338
     20338     20341     20342     20338     20341     20343     20338     20341     20344
     20339     20338     20340     20339     20338     20341     20340     20338     20341
     20341     20344     20345     20341     20344     20346     20341     20344     20347
     20342     20341     20343     20342     20341     20344     20343     20341     20344
     20344     20347     20348     20344     20347     20349     20344     20347     20350
     20345     20344     20346     20345     20344     20347     20346     20344     20347
     20347     20350     20351     20347     20350     20352     20347     20350     20353
     20348     20347     20349     20348     20347     20350     20349     20347     20350
     20350     20353     20354     20350     20353     20355     20350     20353     20356
     20351     20350     20352     20351     20350     20353     20352     20350     20353
     20353     20356     20357     20353     20356     20358     20353     20356     20359
     20354     20353     20355     20354     20353     20356     20355     20353     20356
     20356     20359     20360     20356     20359     20361     20356     20359     20362
     20357     20356     20358     20357     20356     20359     20358     20356     20359
     20359     20362     20363     20359     20362     20364     20359     20362     20365
     20360     20359     20361     20360     20359     20362     20361     20359     20362
     20362     20365     20366     20362     20365     20367     20362     20365     20368
     20363     20362     20364     20363     20362     20365     20364     20362     20365
     20365     20368     20369     20365     20368     20370     20365     20368     20371
     20366     20365     20367     20366     20365     20368     20367     20365     20368
     20368     20371     20372     20368     20371     20373     20368     20371     20374
     20369     20368     20370     20369     20368     20371     20370     20368     20371
     20371     20374     20375     20371     20374     20376     20371     20374     20377
     20372     20371     20373     20372     20371     20374     20373     20371     20374
     20375     20374     20376     20375     20374     20377     20376     20374     20377
     20378     20379     20380     20378     20379     20381     20378     20379     20382
     20378     20383     20384     20378     20383     20385     20378     20383     20386
     20378     20387     20388     20378     20387     20389     20378     20387     20390
     20378     20391     20392     20378     20391     20393     20378     20391     20394
     20379     20378     20383     20379     20378     20387     20379     20378     20391
     20380     20379     20381     20380     20379     20382     20381     20379     20382
     20383     20378     20387     20383     20378     20391     20384     20383     20385
     20384     20383     20386     20385     20383     20386     20387     20378     20391
     20388     20387     20389     20388     20387     20390     20389     20387     20390
     20391     20394     20395     20391     20394     20396     20391     20394     20401
     20392     20391     20393     20392     20391     20394     20393     20391     20394
     20394     20401     20397     20395     20394     20396     20395     20394     20401
     20396     20394     20401     20397     20400     20402     20398     20397     20399
     20398     20397     20400     20398     20397     20401     20399     20397     20400
     20399     20397     20401     20400     20397     20401     20400     20402     20403
     20400     20402     20404     20400     20402     20407     20402     20407     20405
     20402     20407     20408     20402     20407     20409     20403     20402     20404
     20403     20402     20407     20404     20402     20407     20405     20407     20408
     20405     20407     20409     20405     20457     20458     20405     20457     20459
     20406     20405     20407     20406     20405     20457     20407     20405     20457
     20407     20409     20410     20407     20409     20411     20407     20409     20413
     20408     20407     20409     20409     20411     20412     20409     20413     20414
     20409     20413     20415     20410     20409     20411     20410     20409     20413
     20411     20409     20413     20413     20415     20416     20413     20415     20417
     20414     20413     20415     20415     20417     20418     20415     20417     20419
     20415     20417     20420     20416     20415     20417     20417     20420     20421
     20417     20420     20422     20417     20420     20423     20418     20417     20419
     20418     20417     20420     20419     20417     20420     20420     20423     20424
     20420     20423     20425     20420     20423     20426     20421     20420     20422
     20421     20420     20423     20422     20420     20423     20423     20426     20427
     20423     20426     20428     20423     20426     20429     20424     20423     20425
     20424     20423     20426     20425     20423     20426     20426     20429     20430
     20426     20429     20431     20426     20429     20432     20427     20426     20428
     20427     20426     20429     20428     20426     20429     20429     20432     20433
     20429     20432     20434     20429     20432     20435     20430     20429     20431
     20430     20429     20432     20431     20429     20432     20432     20435     20436
     20432     20435     20437     20432     20435     20438     20433     20432     20434
     20433     20432     20435     20434     20432     20435     20435     20438     20439
     20435     20438     20440     20435     20438     20441     20436     20435     20437
     20436     20435     20438     20437     20435     20438     20438     20441     20442
     20438     20441     20443     20438     20441     20444     20439     20438     20440
     20439     20438     20441     20440     20438     20441     20441     20444     20445
     20441     20444     20446     20441     20444     20447     20442     20441     20443
     20442     20441     20444     20443     20441     20444     20444     20447     20448
     20444     20447     20449     20444     20447     20450     20445     20444     20446
     20445     20444     20447     20446     20444     20447     20447     20450     20451
     20447     20450     20452     20447     20450     20453     20448     20447     20449
     20448     20447     20450     20449     20447     20450     20450     20453     20454
     20450     20453     20455     20450     20453     20456     20451     20450     20452
     20451     20450     20453     20452     20450     20453     20454     20453     20455
     20454     20453     20456     20455     20453     20456     20457     20459     20460
     20457     20459     20461     20457     20459     20462     20458     20457     20459
     20459     20462     20463     20459     20462     20464     20459     20462     20465
     20460     20459     20461     20460     20459     20462     20461     20459     20462
     20462     20465     20466     20462     20465     20467     20462     20465     20468
     20463     20462     20464     20463     20462     20465     20464     20462     20465
     20465     20468     20469     20465     20468     20470     20465     20468     20471
     20466     20465     20467     20466     20465     20468     20467     20465     20468
     20468     20471     20472     20468     20471     20473     20468     20471     20474
     20469     20468     20470     20469     20468     20471     20470     20468     20471
     20471     20474     20475     20471     20474     20476     20471     20474     20477
     20472     20471     20473     20472     20471     20474     20473     20471     20474
     20474     20477     20478     20474     20477     20479     20474     20477     20480
     20475     20474     20476     20475     20474     20477     20476     20474     20477
     20477     20480     20481     20477     20480     20482     20478     20477     20479
     20478     20477     20480     20479     20477     20480     20480     20482     20483
     20480     20482     20484     20481     20480     20482     20482     20484     20485
     20482     20484     20486     20482     20484     20487     20483     20482     20484
     20484     20487     20488     20484     20487     20489     20484     20487     20490
     20485     20484     20486     20485     20484     20487     20486     20484     20487
     20487     20490     20491     20487     20490     20492     20487     20490     20493
     20488     20487     20489     20488     20487     20490     20489     20487     20490
     20490     20493     20494     20490     20493     20495     20490     20493     20496
     20491     20490     20492     20491     20490     20493     20492     20490     20493
     20493     20496     20497     20493     20496     20498     20493     20496     20499
     20494     20493     20495     20494     20493     20496     20495     20493     20496
     20496     20499     20500     20496     20499     20501     20496     20499     20502
     20497     20496     20498     20497     20496     20499     20498     20496     20499
     20499     20502     20503     20499     20502     20504     20499     20502     20505
     20500     20499     20501     20500     20499     20502     20501     20499     20502
     20502     20505     20506     20502     20505     20507     20502     20505     20508
     20503     20502     20504     20503     20502     20505     20504     20502     20505
     20506     20505     20507     20506     20505     20508     20507     20505     20508
     20509     20513     20514     20509     20513     20515     20509     20513     20516
     20510     20509     20511     20510     20509     20512     20510     20509     20513
     20511     20509     20512     20511     20509     20513     20512     20509     20513
     20513     20516     20517     20513     20516     20518     20513     20516     20522
     20514     20513     20515     20514     20513     20516     20515     20513     20516
     20516     20522     20519     20517     20516     20518     20517     20516     20522
     20518     20516     20522     20519     20523     20524     20520     20519     20521
     20520     20519     20522     20520     20519     20523     20521     20519     20522
     20521     20519     20523     20522     20519     20523     20523     20524     20525
     20523     20524     20526     20523     20524     20527     20524     20527     20528
     20524     20527     20529     20524     20527     20535     20525     20524     20526
     20525     20524     20527     20526     20524     20527     20527     20529     20530
     20527     20535     20536     20527     20535     20537     20527     20535     20538
     20528     20527     20529     20528     20527     20535     20529     20527     20535
     20529     20530     20531     20529     20530     20532     20530     20532     20533
     20530     20532     20534     20530     20532     20544     20531     20530     20532
     20532     20544     20545     20532     20544     20546     20532     20544     20547
     20533     20532     20534     20533     20532     20544     20534     20532     20544
     20535     20538     20539     20536     20535     20537     20536     20535     20538
     20537     20535     20538     20538     20539     20540     20538     20539     20541
     20539     20541     20542     20539     20541     20543     20539     20541     20591
     20540     20539     20541     20541     20591     20592     20541     20591     20593
     20541     20591     20594     20542     20541     20543     20542     20541     20591
     20543     20541     20591     20544     20547     20548     20544     20547     20549
     20544     20547     20550     20545     20544     20546     20545     20544     20547
     20546     20544     20547     20547     20550     20551     20547     20550     20552
     20547     20550     20553     20548     20547     20549     20548     20547     20550
     20549     20547     20550     20550     20553     20554     20550     20553     20555
     20550     20553     20556     20551     20550     20552     20551     20550     20553
     20552     20550     20553     20553     20556     20557     20553     20556     20558
     20553     20556     20559     20554     20553     20555     20554     20553     20556
     20555     20553     20556     20556     20559     20560     20556     20559     20561
     20556     20559     20562     20557     20556     20558     20557     20556     20559
     20558     20556     20559     20559     20562     20563     20559     20562     20564
     20560     20559     20561     20560     20559     20562     20561     20559     20562
     20562     20564     20565     20562     20564     20566     20563     20562     20564
     20564     20566     20567     20564     20566     20568     20564     20566     20569
     20565     20564     20566     20566     20569     20570     20566     20569     20571
     20566     20569     20572     20567     20566     20568     20567     20566     20569
     20568     20566     20569     20569     20572     20573     20569     20572     20574
     20569     20572     20575     20570     20569     20571     20570     20569     20572
     20571     20569     20572     20572     20575     20576     20572     20575     20577
     20572     20575     20578     20573     20572     20574     20573     20572     20575
     20574     20572     20575     20575     20578     20579     20575     20578     20580
     20575     20578     20581     20576     20575     20577     20576     20575     20578
     20577     20575     20578     20578     20581     20582     20578     20581     20583
     20578     20581     20584     20579     20578     20580     20579     20578     20581
     20580     20578     20581     20581     20584     20585     20581     20584     20586
     20581     20584     20587     20582     20581     20583     20582     20581     20584
     20583     20581     20584     20584     20587     20588     20584     20587     20589
     20584     20587     20590     20585     20584     20586     20585     20584     20587
     20586     20584     20587     20588     20587     20589     20588     20587     20590
     20589     20587     20590     20591     20594     20595     20591     20594     20596
     20591     20594     20597     20592     20591     20593     20592     20591     20594
     20593     20591     20594     20594     20597     20598     20594     20597     20599
     20594     20597     20600     20595     20594     20596     20595     20594     20597
     20596     20594     20597     20597     20600     20601     20597     20600     20602
     20597     20600     20603     20598     20597     20599     20598     20597     20600
     20599     20597     20600     20600     20603     20604     20600     20603     20605
     20600     20603     20606     20601     20600     20602     20601     20600     20603
     20602     20600     20603     20603     20606     20607     20603     20606     20608
     20603     20606     20609     20604     20603     20605     20604     20603     20606
     20605     20603     20606     20606     20609     20610     20606     20609     20611
     20606     20609     20612     20607     20606     20608     20607     20606     20609
     20608     20606     20609     20609     20612     20613     20609     20612     20614
     20609     20612     20615     20610     20609     20611     20610     20609     20612
     20611     20609     20612     20612     20615     20616     20612     20615     20617
     20612     20615     20618     20613     20612     20614     20613     20612     20615
     20614     20612     20615     20615     20618     20619     20615     20618     20620
     20615     20618     20621     20616     20615     20617     20616     20615     20618
     20617     20615     20618     20618     20621     20622     20618     20621     20623
     20618     20621     20624     20619     20618     20620     20619     20618     20621
     20620     20618     20621     20621     20624     20625     20621     20624     20626
     20621     20624     20627     20622     20621     20623     20622     20621     20624
     20623     20621     20624     20624     20627     20628     20624     20627     20629
     20624     20627     20630     20625     20624     20626     20625     20624     20627
     20626     20624     20627     20627     20630     20631     20627     20630     20632
     20627     20630     20633     20628     20627     20629     20628     20627     20630
     20629     20627     20630     20630     20633     20634     20630     20633     20635
     20630     20633     20636     20631     20630     20632     20631     20630     20633
     20632     20630     20633     20633     20636     20637     20633     20636     20638
     20633     20636     20639     20634     20633     20635     20634     20633     20636
     20635     20633     20636     20637     20636     20638     20637     20636     20639
     20638     20636     20639     20640     20641     20642     20640     20641     20643
     20640     20641     20644     20640     20645     20646     20640     20645     20647
     20640     20645     20648     20640     20649     20650     20640     20649     20651
     20640     20649     20652     20640     20653     20654     20640     20653     20655
     20640     20653     20656     20641     20640     20645     20641     20640     20649
     20641     20640     20653     20642     20641     20643     20642     20641     20644
     20643     20641     20644     20645     20640     20649     20645     20640     20653
     20646     20645     20647     20646     20645     20648     20647     20645     20648
     20649     20640     20653     20650     20649     20651     20650     20649     20652
     20651     20649     20652     20653     20656     20657     20653     20656     20658
     20653     20656     20662     20654     20653     20655     20654     20653     20656
     20655     20653     20656     20656     20662     20659     20657     20656     20658
     20657     20656     20662     20658     20656     20662     20659     20663     20664
     20660     20659     20661     20660     20659     20662     20660     20659     20663
     20661     20659     20662     20661     20659     20663     20662     20659     20663
     20663     20664     20665     20663     20664     20666     20663     20664     20667
     20664     20667     20668     20664     20667     20669     20664     20667     20675
     20665     20664     20666     20665     20664     20667     20666     20664     20667
     20667     20669     20670     20667     20675     20676     20667     20675     20677
     20667     20675     20678     20668     20667     20669     20668     20667     20675
     20669     20667     20675     20669     20670     20671     20669     20670     20672
     20670     20672     20673     20670     20672     20674     20670     20672     20684
     20671     20670     20672     20672     20684     20685     20672     20684     20686
     20672     20684     20687     20673     20672     20674     20673     20672     20684
     20674     20672     20684     20675     20678     20679     20676     20675     20677
     20676     20675     20678     20677     20675     20678     20678     20679     20680
     20678     20679     20681     20679     20681     20682     20679     20681     20683
     20679     20681     20729     20680     20679     20681     20681     20729     20730
     20681     20729     20731     20681     20729     20732     20682     20681     20683
     20682     20681     20729     20683     20681     20729     20684     20687     20688
     20684     20687     20689     20684     20687     20690     20685     20684     20686
     20685     20684     20687     20686     20684     20687     20687     20690     20691
     20687     20690     20692     20687     20690     20693     20688     20687     20689
     20688     20687     20690     20689     20687     20690     20690     20693     20694
     20690     20693     20695     20690     20693     20696     20691     20690     20692
     20691     20690     20693     20692     20690     20693     20693     20696     20697
     20693     20696     20698     20693     20696     20699     20694     20693     20695
     20694     20693     20696     20695     20693     20696     20696     20699     20700
     20696     20699     20701     20696     20699     20702     20697     20696     20698
     20697     20696     20699     20698     20696     20699     20699     20702     20703
     20699     20702     20704     20700     20699     20701     20700     20699     20702
     20701     20699     20702     20702     20704     20705     20702     20704     20706
     20703     20702     20704     20704     20706     20707     20704     20706     20708
     20704     20706     20709     20705     20704     20706     20706     20709     20710
     20706     20709     20711     20707     20706     20708     20707     20706     20709
     20708     20706     20709     20709     20711     20712     20709     20711     20713
     20710     20709     20711     20711     20713     20714     20711     20713     20715
     20711     20713     20716     20712     20711     20713     20713     20716     20717
     20713     20716     20718     20713     20716     20719     20714     20713     20715
     20714     20713     20716     20715     20713     20716     20716     20719     20720
     20716     20719     20721     20716     20719     20722     20717     20716     20718
     20717     20716     20719     20718     20716     20719     20719     20722     20723
     20719     20722     20724     20719     20722     20725     20720     20719     20721
     20720     20719     20722     20721     20719     20722     20722     20725     20726
     20722     20725     20727     20722     20725     20728     20723     20722     20724
     20723     20722     20725     20724     20722     20725     20726     20725     20727
     20726     20725     20728     20727     20725     20728     20729     20732     20733
     20729     20732     20734     20729     20732     20735     20730     20729     20731
     20730     20729     20732     20731     20729     20732     20732     20735     20736
     20732     20735     20737     20732     20735     20738     20733     20732     20734
     20733     20732     20735     20734     20732     20735     20735     20738     20739
     20735     20738     20740     20735     20738     20741     20736     20735     20737
     20736     20735     20738     20737     20735     20738     20738     20741     20742
     20738     20741     20743     20738     20741     20744     20739     20738     20740
     20739     20738     20741     20740     20738     20741     20741     20744     20745
     20741     20744     20746     20741     20744     20747     20742     20741     20743
     20742     20741     20744     20743     20741     20744     20744     20747     20748
     20744     20747     20749     20744     20747     20750     20745     20744     20746
     20745     20744     20747     20746     20744     20747     20747     20750     20751
     20747     20750     20752     20747     20750     20753     20748     20747     20749
     20748     20747     20750     20749     20747     20750     20750     20753     20754
     20750     20753     20755     20750     20753     20756     20751     20750     20752
     20751     20750     20753     20752     20750     20753     20753     20756     20757
     20753     20756     20758     20753     20756     20759     20754     20753     20755
     20754     20753     20756     20755     20753     20756     20756     20759     20760
     20756     20759     20761     20756     20759     20762     20757     20756     20758
     20757     20756     20759     20758     20756     20759     20759     20762     20763
     20759     20762     20764     20759     20762     20765     20760     20759     20761
     20760     20759     20762     20761     20759     20762     20762     20765     20766
     20762     20765     20767     20762     20765     20768     20763     20762     20764
     20763     20762     20765     20764     20762     20765     20765     20768     20769
     20765     20768     20770     20765     20768     20771     20766     20765     20767
     20766     20765     20768     20767     20765     20768     20768     20771     20772
     20768     20771     20773     20768     20771     20774     20769     20768     20770
     20769     20768     20771     20770     20768     20771     20771     20774     20775
     20771     20774     20776     20771     20774     20777     20772     20771     20773
     20772     20771     20774     20773     20771     20774     20775     20774     20776
     20775     20774     20777     20776     20774     20777     20778     20780     20781
     20778     20782     20783     20778     20782     20784     20778     20782     20785
     20778     20824     20821     20778     20824     20825     20778     20824     20826
     20779     20778     20780     20779     20778     20782     20779     20778     20824
     20780     20778     20782     20780     20778     20824     20782     20778     20824
     20782     20785     20786     20782     20785     20816     20783     20782     20784
     20783     20782     20785     20784     20782     20785     20785     20786     20787
     20785     20786     20788     20785     20816     20814     20785     20816     20817
     20785     20816     20821     20786     20785     20816     20786     20788     20789
     20786     20788     20790     20786     20788     20791     20787     20786     20788
     20788     20791     20792     20788     20791     20793     20788     20791     20814
     20789     20788     20790     20789     20788     20791     20790     20788     20791
     20791     20793     20794     20791     20793     20795     20791     20793     20803
     20791     20814     20811     20791     20814     20815     20791     20814     20816
     20792     20791     20793     20792     20791     20814     20793     20791     20814
     20793     20795     20796     20793     20795     20797     20793     20795     20798
     20793     20803     20801     20793     20803     20804     20793     20803     20808
     20794     20793     20795     20794     20793     20803     20795     20793     20803
     20795     20798     20799     20795     20798     20800     20795     20798     20801
     20796     20795     20797     20796     20795     20798     20797     20795     20798
     20798     20801     20802     20798     20801     20803     20798     20801     20827
     20799     20798     20800     20799     20798     20801     20800     20798     20801
     20801     20803     20804     20801     20803     20808     20801     20827     20828
     20801     20827     20829     20801     20827     20833     20802     20801     20803
     20802     20801     20827     20803     20801     20827     20803     20804     20805
     20803     20804     20806     20803     20804     20807     20803     20808     20809
     20803     20808     20810     20803     20808     20811     20804     20803     20808
     20805     20804     20806     20805     20804     20807     20806     20804     20807
     20808     20811     20812     20808     20811     20813     20808     20811     20814
     20809     20808     20810     20809     20808     20811     20810     20808     20811
     20811     20814     20815     20811     20814     20816     20812     20811     20813
     20812     20811     20814     20813     20811     20814     20814     20816     20817
     20814     20816     20821     20815     20814     20816     20816     20817     20818
     20816     20817     20819     20816     20817     20820     20816     20821     20822
     20816     20821     20823     20816     20821     20824     20817     20816     20821
     20818     20817     20819     20818     20817     20820     20819     20817     20820
     20821     20824     20825     20821     20824     20826     20822     20821     20823
     20822     20821     20824     20823     20821     20824     20825     20824     20826
     20827     20829     20830     20827     20829     20831     20827     20829     20832
     20827     20833     20834     20827     20833     20835     20827     20833     20836
     20828     20827     20829     20828     20827     20833     20829     20827     20833
     20830     20829     20831     20830     20829     20832     20831     20829     20832
     20833     20836     20837     20833     20836     20838     20833     20836     20839
     20834     20833     20835     20834     20833     20836     20835     20833     20836
     20836     20839     20840     20836     20839     20841     20836     20839     20842
     20837     20836     20838     20837     20836     20839     20838     20836     20839
     20839     20842     20843     20839     20842     20844     20839     20842     20848
     20840     20839     20841     20840     20839     20842     20841     20839     20842
     20842     20844     20845     20842     20844     20846     20842     20844     20847
     20842     20848     20849     20842     20848     20850     20842     20848     20851
     20843     20842     20844     20843     20842     20848     20844     20842     20848
     20845     20844     20846     20845     20844     20847     20846     20844     20847
     20849     20848     20850     20849     20848     20851     20850     20848     20851
     20852     20856     20857     20852     20856     20858     20852     20856     20859
     20853     20852     20854     20853     20852     20855     20853     20852     20856
     20854     20852     20855     20854     20852     20856     20855     20852     20856
     20856     20859     20860     20856     20859     20861     20856     20859     20865
     20857     20856     20858     20857     20856     20859     20858     20856     20859
     20859     20865     20862     20860     20859     20861     20860     20859     20865
     20861     20859     20865     20862     20866     20867     20863     20862     20864
     20863     20862     20865     20863     20862     20866     20864     20862     20865
     20864     20862     20866     20865     20862     20866     20866     20867     20868
     20866     20867     20869     20866     20867     20870     20867     20870     20871
     20867     20870     20872     20867     20870     20878     20868     20867     20869
     20868     20867     20870     20869     20867     20870     20870     20872     20873
     20870     20878     20879     20870     20878     20880     20870     20878     20881
     20871     20870     20872     20871     20870     20878     20872     20870     20878
     20872     20873     20874     20872     20873     20875     20873     20875     20876
     20873     20875     20877     20873     20875     20887     20874     20873     20875
     20875     20887     20888     20875     20887     20889     20875     20887     20890
     20876     20875     20877     20876     20875     20887     20877     20875     20887
     20878     20881     20882     20879     20878     20880     20879     20878     20881
     20880     20878     20881     20881     20882     20883     20881     20882     20884
     20882     20884     20885     20882     20884     20886     20882     20884     20934
     20883     20882     20884     20884     20934     20935     20884     20934     20936
     20884     20934     20937     20885     20884     20886     20885     20884     20934
     20886     20884     20934     20887     20890     20891     20887     20890     20892
     20887     20890     20893     20888     20887     20889     20888     20887     20890
     20889     20887     20890     20890     20893     20894     20890     20893     20895
     20891     20890     20892     20891     20890     20893     20892     20890     20893
     20893     20895     20896     20893     20895     20897     20894     20893     20895
     20895     20897     20898     20895     20897     20899     20895     20897     20900
     20896     20895     20897     20897     20900     20901     20897     20900     20902
     20898     20897     20899     20898     20897     20900     20899     20897     20900
     20900     20902     20903     20900     20902     20904     20901     20900     20902
     20902     20904     20905     20902     20904     20906     20902     20904     20907
     20903     20902     20904     20904     20907     20908     20904     20907     20909
     20905     20904     20906     20905     20904     20907     20906     20904     20907
     20907     20909     20910     20907     20909     20911     20908     20907     20909
     20909     20911     20912     20909     20911     20913     20909     20911     20914
     20910     20909     20911     20911     20914     20915     20911     20914     20916
     20912     20911     20913     20912     20911     20914     20913     20911     20914
     20914     20916     20917     20914     20916     20918     20915     20914     20916
     20916     20918     20919     20916     20918     20920     20916     20918     20921
     20917     20916     20918     20918     20921     20922     20918     20921     20923
     20918     20921     20924     20919     20918     20920     20919     20918     20921
     20920     20918     20921     20921     20924     20925     20921     20924     20926
     20921     20924     20927     20922     20921     20923     20922     20921     20924
     20923     20921     20924     20924     20927     20928     20924     20927     20929
     20924     20927     20930     20925     20924     20926     20925     20924     20927
     20926     20924     20927     20927     20930     20931     20927     20930     20932
     20927     20930     20933     20928     20927     20929     20928     20927     20930
     20929     20927     20930     20931     20930     20932     20931     20930     20933
     20932     20930     20933     20934     20937     20938     20934     20937     20939
     20934     20937     20940     20935     20934     20936     20935     20934     20937
     20936     20934     20937     20937     20940     20941     20937     20940     20942
     20937     20940     20943     20938     20937     20939     20938     20937     20940
     20939     20937     20940     20940     20943     20944     20940     20943     20945
     20940     20943     20946     20941     20940     20942     20941     20940     20943
     20942     20940     20943     20943     20946     20947     20943     20946     20948
     20943     20946     20949     20944     20943     20945     20944     20943     20946
     20945     20943     20946     20946     20949     20950     20946     20949     20951
     20946     20949     20952     20947     20946     20948     20947     20946     20949
     20948     20946     20949     20949     20952     20953     20949     20952     20954
     20949     20952     20955     20950     20949     20951     20950     20949     20952
     20951     20949     20952     20952     20955     20956     20952     20955     20957
     20952     20955     20958     20953     20952     20954     20953     20952     20955
     20954     20952     20955     20955     20958     20959     20955     20958     20960
     20955     20958     20961     20956     20955     20957     20956     20955     20958
     20957     20955     20958     20958     20961     20962     20958     20961     20963
     20958     20961     20964     20959     20958     20960     20959     20958     20961
     20960     20958     20961     20961     20964     20965     20961     20964     20966
     20961     20964     20967     20962     20961     20963     20962     20961     20964
     20963     20961     20964     20964     20967     20968     20964     20967     20969
     20964     20967     20970     20965     20964     20966     20965     20964     20967
     20966     20964     20967     20967     20970     20971     20967     20970     20972
     20967     20970     20973     20968     20967     20969     20968     20967     20970
     20969     20967     20970     20970     20973     20974     20970     20973     20975
     20970     20973     20976     20971     20970     20972     20971     20970     20973
     20972     20970     20973     20973     20976     20977     20973     20976     20978
     20973     20976     20979     20974     20973     20975     20974     20973     20976
     20975     20973     20976     20976     20979     20980     20976     20979     20981
     20976     20979     20982     20977     20976     20978     20977     20976     20979
     20978     20976     20979     20980     20979     20981     20980     20979     20982
     20981     20979     20982     20983     20987     20988     20983     20987     20989
     20983     20987     20990     20984     20983     20985     20984     20983     20986
     20984     20983     20987     20985     20983     20986     20985     20983     20987
     20986     20983     20987     20987     20990     20991     20987     20990     20992
     20987     20990     20996     20988     20987     20989     20988     20987     20990
     20989     20987     20990     20990     20996     20993     20991     20990     20992
     20991     20990     20996     20992     20990     20996     20993     20997     20998
     20994     20993     20995     20994     20993     20996     20994     20993     20997
     20995     20993     20996     20995     20993     20997     20996     20993     20997
     20997     20998     20999     20997     20998     21000     20997     20998     21001
     20998     21001     21002     20998     21001     21003     20998     21001     21009
     20999     20998     21000     20999     20998     21001     21000     20998     21001
     21001     21003     21004     21001     21009     21010     21001     21009     21011
     21001     21009     21012     21002     21001     21003     21002     21001     21009
     21003     21001     21009     21003     21004     21005     21003     21004     21006
     21004     21006     21007     21004     21006     21008     21004     21006     21018
     21005     21004     21006     21006     21018     21019     21006     21018     21020
     21006     21018     21021     21007     21006     21008     21007     21006     21018
     21008     21006     21018     21009     21012     21013     21010     21009     21011
     21010     21009     21012     21011     21009     21012     21012     21013     21014
     21012     21013     21015     21013     21015     21016     21013     21015     21017
     21013     21015     21065     21014     21013     21015     21015     21065     21066
     21015     21065     21067     21015     21065     21068     21016     21015     21017
     21016     21015     21065     21017     21015     21065     21018     21021     21022
     21018     21021     21023     21018     21021     21024     21019     21018     21020
     21019     21018     21021     21020     21018     21021     21021     21024     21025
     21021     21024     21026     21022     21021     21023     21022     21021     21024
     21023     21021     21024     21024     21026     21027     21024     21026     21028
     21025     21024     21026     21026     21028     21029     21026     21028     21030
     21026     21028     21031     21027     21026     21028     21028     21031     21032
     21028     21031     21033     21029     21028     21030     21029     21028     21031
     21030     21028     21031     21031     21033     21034     21031     21033     21035
     21032     21031     21033     21033     21035     21036     21033     21035     21037
     21033     21035     21038     21034     21033     21035     21035     21038     21039
     21035     21038     21040     21036     21035     21037     21036     21035     21038
     21037     21035     21038     21038     21040     21041     21038     21040     21042
     21039     21038     21040     21040     21042     21043     21040     21042     21044
     21040     21042     21045     21041     21040     21042     21042     21045     21046
     21042     21045     21047     21043     21042     21044     21043     21042     21045
     21044     21042     21045     21045     21047     21048     21045     21047     21049
     21046     21045     21047     21047     21049     21050     21047     21049     21051
     21047     21049     21052     21048     21047     21049     21049     21052     21053
     21049     21052     21054     21049     21052     21055     21050     21049     21051
     21050     21049     21052     21051     21049     21052     21052     21055     21056
     21052     21055     21057     21052     21055     21058     21053     21052     21054
     21053     21052     21055     21054     21052     21055     21055     21058     21059
     21055     21058     21060     21055     21058     21061     21056     21055     21057
     21056     21055     21058     21057     21055     21058     21058     21061     21062
     21058     21061     21063     21058     21061     21064     21059     21058     21060
     21059     21058     21061     21060     21058     21061     21062     21061     21063
     21062     21061     21064     21063     21061     21064     21065     21068     21069
     21065     21068     21070     21065     21068     21071     21066     21065     21067
     21066     21065     21068     21067     21065     21068     21068     21071     21072
     21068     21071     21073     21068     21071     21074     21069     21068     21070
     21069     21068     21071     21070     21068     21071     21071     21074     21075
     21071     21074     21076     21071     21074     21077     21072     21071     21073
     21072     21071     21074     21073     21071     21074     21074     21077     21078
     21074     21077     21079     21074     21077     21080     21075     21074     21076
     21075     21074     21077     21076     21074     21077     21077     21080     21081
     21077     21080     21082     21077     21080     21083     21078     21077     21079
     21078     21077     21080     21079     21077     21080     21080     21083     21084
     21080     21083     21085     21080     21083     21086     21081     21080     21082
     21081     21080     21083     21082     21080     21083     21083     21086     21087
     21083     21086     21088     21083     21086     21089     21084     21083     21085
     21084     21083     21086     21085     21083     21086     21086     21089     21090
     21086     21089     21091     21086     21089     21092     21087     21086     21088
     21087     21086     21089     21088     21086     21089     21089     21092     21093
     21089     21092     21094     21089     21092     21095     21090     21089     21091
     21090     21089     21092     21091     21089     21092     21092     21095     21096
     21092     21095     21097     21092     21095     21098     21093     21092     21094
     21093     21092     21095     21094     21092     21095     21095     21098     21099
     21095     21098     21100     21095     21098     21101     21096     21095     21097
     21096     21095     21098     21097     21095     21098     21098     21101     21102
     21098     21101     21103     21098     21101     21104     21099     21098     21100
     21099     21098     21101     21100     21098     21101     21101     21104     21105
     21101     21104     21106     21101     21104     21107     21102     21101     21103
     21102     21101     21104     21103     21101     21104     21104     21107     21108
     21104     21107     21109     21104     21107     21110     21105     21104     21106
     21105     21104     21107     21106     21104     21107     21107     21110     21111
     21107     21110     21112     21107     21110     21113     21108     21107     21109
     21108     21107     21110     21109     21107     21110     21111     21110     21112
     21111     21110     21113     21112     21110     21113     21114     21116     21117
     21114     21118     21119     21114     21118     21120     21114     21118     21121
     21114     21160     21157     21114     21160     21161     21114     21160     21162
     21115     21114     21116     21115     21114     21118     21115     21114     21160
     21116     21114     21118     21116     21114     21160     21118     21114     21160
     21118     21121     21122     21118     21121     21152     21119     21118     21120
     21119     21118     21121     21120     21118     21121     21121     21122     21123
     21121     21122     21124     21121     21152     21150     21121     21152     21153
     21121     21152     21157     21122     21121     21152     21122     21124     21125
     21122     21124     21126     21122     21124     21127     21123     21122     21124
     21124     21127     21128     21124     21127     21129     21124     21127     21150
     21125     21124     21126     21125     21124     21127     21126     21124     21127
     21127     21129     21130     21127     21129     21131     21127     21129     21139
     21127     21150     21147     21127     21150     21151     21127     21150     21152
     21128     21127     21129     21128     21127     21150     21129     21127     21150
     21129     21131     21132     21129     21131     21133     21129     21131     21134
     21129     21139     21137     21129     21139     21140     21129     21139     21144
     21130     21129     21131     21130     21129     21139     21131     21129     21139
     21131     21134     21135     21131     21134     21136     21131     21134     21137
     21132     21131     21133     21132     21131     21134     21133     21131     21134
     21134     21137     21138     21134     21137     21139     21134     21137     21163
     21135     21134     21136     21135     21134     21137     21136     21134     21137
     21137     21139     21140     21137     21139     21144     21137     21163     21164
     21137     21163     21165     21137     21163     21169     21138     21137     21139
     21138     21137     21163     21139     21137     21163     21139     21140     21141
     21139     21140     21142     21139     21140     21143     21139     21144     21145
     21139     21144     21146     21139     21144     21147     21140     21139     21144
     21141     21140     21142     21141     21140     21143     21142     21140     21143
     21144     21147     21148     21144     21147     21149     21144     21147     21150
     21145     21144     21146     21145     21144     21147     21146     21144     21147
     21147     21150     21151     21147     21150     21152     21148     21147     21149
     21148     21147     21150     21149     21147     21150     21150     21152     21153
     21150     21152     21157     21151     21150     21152     21152     21153     21154
     21152     21153     21155     21152     21153     21156     21152     21157     21158
     21152     21157     21159     21152     21157     21160     21153     21152     21157
     21154     21153     21155     21154     21153     21156     21155     21153     21156
     21157     21160     21161     21157     21160     21162     21158     21157     21159
     21158     21157     21160     21159     21157     21160     21161     21160     21162
     21163     21165     21166     21163     21165     21167     21163     21165     21168
     21163     21169     21170     21163     21169     21171     21163     21169     21172
     21164     21163     21165     21164     21163     21169     21165     21163     21169
     21166     21165     21167     21166     21165     21168     21167     21165     21168
     21169     21172     21173     21169     21172     21174     21169     21172     21175
     21170     21169     21171     21170     21169     21172     21171     21169     21172
     21172     21175     21176     21172     21175     21177     21172     21175     21178
     21173     21172     21174     21173     21172     21175     21174     21172     21175
     21175     21178     21179     21175     21178     21180     21175     21178     21184
     21176     21175     21177     21176     21175     21178     21177     21175     21178
     21178     21180     21181     21178     21180     21182     21178     21180     21183
     21178     21184     21185     21178     21184     21186     21178     21184     21187
     21179     21178     21180     21179     21178     21184     21180     21178     21184
     21181     21180     21182     21181     21180     21183     21182     21180     21183
     21185     21184     21186     21185     21184     21187     21186     21184     21187
     21188     21192     21193     21188     21192     21194     21188     21192     21195
     21189     21188     21190     21189     21188     21191     21189     21188     21192
     21190     21188     21191     21190     21188     21192     21191     21188     21192
     21192     21195     21196     21192     21195     21197     21192     21195     21201
     21193     21192     21194     21193     21192     21195     21194     21192     21195
     21195     21201     21198     21196     21195     21197     21196     21195     21201
     21197     21195     21201     21198     21202     21203     21199     21198     21200
     21199     21198     21201     21199     21198     21202     21200     21198     21201
     21200     21198     21202     21201     21198     21202     21202     21203     21204
     21202     21203     21205     21202     21203     21206     21203     21206     21207
     21203     21206     21208     21203     21206     21214     21204     21203     21205
     21204     21203     21206     21205     21203     21206     21206     21208     21209
     21206     21214     21215     21206     21214     21216     21206     21214     21217
     21207     21206     21208     21207     21206     21214     21208     21206     21214
     21208     21209     21210     21208     21209     21211     21209     21211     21212
     21209     21211     21213     21209     21211     21223     21210     21209     21211
     21211     21223     21224     21211     21223     21225     21211     21223     21226
     21212     21211     21213     21212     21211     21223     21213     21211     21223
     21214     21217     21218     21215     21214     21216     21215     21214     21217
     21216     21214     21217     21217     21218     21219     21217     21218     21220
     21218     21220     21221     21218     21220     21222     21218     21220     21270
     21219     21218     21220     21220     21270     21271     21220     21270     21272
     21220     21270     21273     21221     21220     21222     21221     21220     21270
     21222     21220     21270     21223     21226     21227     21223     21226     21228
     21223     21226     21229     21224     21223     21225     21224     21223     21226
     21225     21223     21226     21226     21229     21230     21226     21229     21231
     21227     21226     21228     21227     21226     21229     21228     21226     21229
     21229     21231     21232     21229     21231     21233     21230     21229     21231
     21231     21233     21234     21231     21233     21235     21231     21233     21236
     21232     21231     21233     21233     21236     21237     21233     21236     21238
     21234     21233     21235     21234     21233     21236     21235     21233     21236
     21236     21238     21239     21236     21238     21240     21237     21236     21238
     21238     21240     21241     21238     21240     21242     21238     21240     21243
     21239     21238     21240     21240     21243     21244     21240     21243     21245
     21241     21240     21242     21241     21240     21243     21242     21240     21243
     21243     21245     21246     21243     21245     21247     21244     21243     21245
     21245     21247     21248     21245     21247     21249     21245     21247     21250
     21246     21245     21247     21247     21250     21251     21247     21250     21252
     21248     21247     21249     21248     21247     21250     21249     21247     21250
     21250     21252     21253     21250     21252     21254     21251     21250     21252
     21252     21254     21255     21252     21254     21256     21252     21254     21257
     21253     21252     21254     21254     21257     21258     21254     21257     21259
     21254     21257     21260     21255     21254     21256     21255     21254     21257
     21256     21254     21257     21257     21260     21261     21257     21260     21262
     21257     21260     21263     21258     21257     21259     21258     21257     21260
     21259     21257     21260     21260     21263     21264     21260     21263     21265
     21260     21263     21266     21261     21260     21262     21261     21260     21263
     21262     21260     21263     21263     21266     21267     21263     21266     21268
     21263     21266     21269     21264     21263     21265     21264     21263     21266
     21265     21263     21266     21267     21266     21268     21267     21266     21269
     21268     21266     21269     21270     21273     21274     21270     21273     21275
     21270     21273     21276     21271     21270     21272     21271     21270     21273
     21272     21270     21273     21273     21276     21277     21273     21276     21278
     21273     21276     21279     21274     21273     21275     21274     21273     21276
     21275     21273     21276     21276     21279     21280     21276     21279     21281
     21276     21279     21282     21277     21276     21278     21277     21276     21279
     21278     21276     21279     21279     21282     21283     21279     21282     21284
     21279     21282     21285     21280     21279     21281     21280     21279     21282
     21281     21279     21282     21282     21285     21286     21282     21285     21287
     21282     21285     21288     21283     21282     21284     21283     21282     21285
     21284     21282     21285     21285     21288     21289     21285     21288     21290
     21285     21288     21291     21286     21285     21287     21286     21285     21288
     21287     21285     21288     21288     21291     21292     21288     21291     21293
     21288     21291     21294     21289     21288     21290     21289     21288     21291
     21290     21288     21291     21291     21294     21295     21291     21294     21296
     21291     21294     21297     21292     21291     21293     21292     21291     21294
     21293     21291     21294     21294     21297     21298     21294     21297     21299
     21294     21297     21300     21295     21294     21296     21295     21294     21297
     21296     21294     21297     21297     21300     21301     21297     21300     21302
     21297     21300     21303     21298     21297     21299     21298     21297     21300
     21299     21297     21300     21300     21303     21304     21300     21303     21305
     21300     21303     21306     21301     21300     21302     21301     21300     21303
     21302     21300     21303     21303     21306     21307     21303     21306     21308
     21303     21306     21309     21304     21303     21305     21304     21303     21306
     21305     21303     21306     21306     21309     21310     21306     21309     21311
     21306     21309     21312     21307     21306     21308     21307     21306     21309
     21308     21306     21309     21309     21312     21313     21309     21312     21314
     21309     21312     21315     21310     21309     21311     21310     21309     21312
     21311     21309     21312     21312     21315     21316     21312     21315     21317
     21312     21315     21318     21313     21312     21314     21313     21312     21315
     21314     21312     21315     21316     21315     21317     21316     21315     21318
     21317     21315     21318     21319     21320     21321     21319     21320     21322
     21319     21320     21323     21319     21324     21325     21319     21324     21326
     21319     21324     21327     21319     21328     21329     21319     21328     21330
     21319     21328     21331     21319     21332     21333     21319     21332     21334
     21319     21332     21335     21320     21319     21324     21320     21319     21328
     21320     21319     21332     21321     21320     21322     21321     21320     21323
     21322     21320     21323     21324     21319     21328     21324     21319     21332
     21325     21324     21326     21325     21324     21327     21326     21324     21327
     21328     21319     21332     21329     21328     21330     21329     21328     21331
     21330     21328     21331     21332     21335     21336     21332     21335     21337
     21332     21335     21342     21333     21332     21334     21333     21332     21335
     21334     21332     21335     21335     21342     21338     21336     21335     21337
     21336     21335     21342     21337     21335     21342     21338     21341     21343
     21339     21338     21340     21339     21338     21341     21339     21338     21342
     21340     21338     21341     21340     21338     21342     21341     21338     21342
     21341     21343     21344     21341     21343     21345     21341     21343     21348
     21343     21348     21346     21343     21348     21349     21343     21348     21350
     21344     21343     21345     21344     21343     21348     21345     21343     21348
     21346     21348     21349     21346     21348     21350     21346     21398     21399
     21346     21398     21400     21347     21346     21348     21347     21346     21398
     21348     21346     21398     21348     21350     21351     21348     21350     21352
     21348     21350     21354     21349     21348     21350     21350     21352     21353
     21350     21354     21355     21350     21354     21356     21351     21350     21352
     21351     21350     21354     21352     21350     21354     21354     21356     21357
     21354     21356     21358     21355     21354     21356     21356     21358     21359
     21356     21358     21360     21356     21358     21361     21357     21356     21358
     21358     21361     21362     21358     21361     21363     21358     21361     21364
     21359     21358     21360     21359     21358     21361     21360     21358     21361
     21361     21364     21365     21361     21364     21366     21361     21364     21367
     21362     21361     21363     21362     21361     21364     21363     21361     21364
     21364     21367     21368     21364     21367     21369     21364     21367     21370
     21365     21364     21366     21365     21364     21367     21366     21364     21367
     21367     21370     21371     21367     21370     21372     21367     21370     21373
     21368     21367     21369     21368     21367     21370     21369     21367     21370
     21370     21373     21374     21370     21373     21375     21370     21373     21376
     21371     21370     21372     21371     21370     21373     21372     21370     21373
     21373     21376     21377     21373     21376     21378     21373     21376     21379
     21374     21373     21375     21374     21373     21376     21375     21373     21376
     21376     21379     21380     21376     21379     21381     21376     21379     21382
     21377     21376     21378     21377     21376     21379     21378     21376     21379
     21379     21382     21383     21379     21382     21384     21379     21382     21385
     21380     21379     21381     21380     21379     21382     21381     21379     21382
     21382     21385     21386     21382     21385     21387     21382     21385     21388
     21383     21382     21384     21383     21382     21385     21384     21382     21385
     21385     21388     21389     21385     21388     21390     21385     21388     21391
     21386     21385     21387     21386     21385     21388     21387     21385     21388
     21388     21391     21392     21388     21391     21393     21388     21391     21394
     21389     21388     21390     21389     21388     21391     21390     21388     21391
     21391     21394     21395     21391     21394     21396     21391     21394     21397
     21392     21391     21393     21392     21391     21394     21393     21391     21394
     21395     21394     21396     21395     21394     21397     21396     21394     21397
     21398     21400     21401     21398     21400     21402     21398     21400     21403
     21399     21398     21400     21400     21403     21404     21400     21403     21405
     21400     21403     21406     21401     21400     21402     21401     21400     21403
     21402     21400     21403     21403     21406     21407     21403     21406     21408
     21403     21406     21409     21404     21403     21405     21404     21403     21406
     21405     21403     21406     21406     21409     21410     21406     21409     21411
     21406     21409     21412     21407     21406     21408     21407     21406     21409
     21408     21406     21409     21409     21412     21413     21409     21412     21414
     21409     21412     21415     21410     21409     21411     21410     21409     21412
     21411     21409     21412     21412     21415     21416     21412     21415     21417
     21412     21415     21418     21413     21412     21414     21413     21412     21415
     21414     21412     21415     21415     21418     21419     21415     21418     21420
     21415     21418     21421     21416     21415     21417     21416     21415     21418
     21417     21415     21418     21418     21421     21422     21418     21421     21423
     21419     21418     21420     21419     21418     21421     21420     21418     21421
     21421     21423     21424     21421     21423     21425     21422     21421     21423
     21423     21425     21426     21423     21425     21427     21423     21425     21428
     21424     21423     21425     21425     21428     21429     21425     21428     21430
     21425     21428     21431     21426     21425     21427     21426     21425     21428
     21427     21425     21428     21428     21431     21432     21428     21431     21433
     21428     21431     21434     21429     21428     21430     21429     21428     21431
     21430     21428     21431     21431     21434     21435     21431     21434     21436
     21431     21434     21437     21432     21431     21433     21432     21431     21434
     21433     21431     21434     21434     21437     21438     21434     21437     21439
     21434     21437     21440     21435     21434     21436     21435     21434     21437
     21436     21434     21437     21437     21440     21441     21437     21440     21442
     21437     21440     21443     21438     21437     21439     21438     21437     21440
     21439     21437     21440     21440     21443     21444     21440     21443     21445
     21440     21443     21446     21441     21440     21442     21441     21440     21443
     21442     21440     21443     21443     21446     21447     21443     21446     21448
     21443     21446     21449     21444     21443     21445     21444     21443     21446
     21445     21443     21446     21447     21446     21448     21447     21446     21449
     21448     21446     21449     21450     21454     21455     21450     21454     21456
     21450     21454     21459     21451     21450     21452     21451     21450     21453
     21451     21450     21454     21452     21450     21453     21452     21450     21454
     21453     21450     21454     21454     21456     21457     21454     21456     21458
     21454     21459     21460     21454     21459     21461     21454     21459     21465
     21455     21454     21456     21455     21454     21459     21456     21454     21459
     21457     21456     21458     21459     21465     21462     21460     21459     21461
     21460     21459     21465     21461     21459     21465     21462     21466     21467
     21463     21462     21464     21463     21462     21465     21463     21462     21466
     21464     21462     21465     21464     21462     21466     21465     21462     21466
     21466     21467     21468     21466     21467     21469     21466     21467     21470
     21467     21470     21471     21467     21470     21472     21467     21470     21478
     21468     21467     21469     21468     21467     21470     21469     21467     21470
     21470     21472     21473     21470     21478     21479     21470     21478     21480
     21470     21478     21481     21471     21470     21472     21471     21470     21478
     21472     21470     21478     21472     21473     21474     21472     21473     21475
     21473     21475     21476     21473     21475     21477     21473     21475     21487
     21474     21473     21475     21475     21487     21488     21475     21487     21489
     21475     21487     21490     21476     21475     21477     21476     21475     21487
     21477     21475     21487     21478     21481     21482     21479     21478     21480
     21479     21478     21481     21480     21478     21481     21481     21482     21483
     21481     21482     21484     21482     21484     21485     21482     21484     21486
     21482     21484     21534     21483     21482     21484     21484     21534     21535
     21484     21534     21536     21484     21534     21537     21485     21484     21486
     21485     21484     21534     21486     21484     21534     21487     21490     21491
     21487     21490     21492     21487     21490     21493     21488     21487     21489
     21488     21487     21490     21489     21487     21490     21490     21493     21494
     21490     21493     21495     21491     21490     21492     21491     21490     21493
     21492     21490     21493     21493     21495     21496     21493     21495     21497
     21494     21493     21495     21495     21497     21498     21495     21497     21499
     21495     21497     21500     21496     21495     21497     21497     21500     21501
     21497     21500     21502     21498     21497     21499     21498     21497     21500
     21499     21497     21500     21500     21502     21503     21500     21502     21504
     21501     21500     21502     21502     21504     21505     21502     21504     21506
     21502     21504     21507     21503     21502     21504     21504     21507     21508
     21504     21507     21509     21505     21504     21506     21505     21504     21507
     21506     21504     21507     21507     21509     21510     21507     21509     21511
     21508     21507     21509     21509     21511     21512     21509     21511     21513
     21509     21511     21514     21510     21509     21511     21511     21514     21515
     21511     21514     21516     21512     21511     21513     21512     21511     21514
     21513     21511     21514     21514     21516     21517     21514     21516     21518
     21515     21514     21516     21516     21518     21519     21516     21518     21520
     21516     21518     21521     21517     21516     21518     21518     21521     21522
     21518     21521     21523     21518     21521     21524     21519     21518     21520
     21519     21518     21521     21520     21518     21521     21521     21524     21525
     21521     21524     21526     21521     21524     21527     21522     21521     21523
     21522     21521     21524     21523     21521     21524     21524     21527     21528
     21524     21527     21529     21524     21527     21530     21525     21524     21526
     21525     21524     21527     21526     21524     21527     21527     21530     21531
     21527     21530     21532     21527     21530     21533     21528     21527     21529
     21528     21527     21530     21529     21527     21530     21531     21530     21532
     21531     21530     21533     21532     21530     21533     21534     21537     21538
     21534     21537     21539     21534     21537     21540     21535     21534     21536
     21535     21534     21537     21536     21534     21537     21537     21540     21541
     21537     21540     21542     21537     21540     21543     21538     21537     21539
     21538     21537     21540     21539     21537     21540     21540     21543     21544
     21540     21543     21545     21540     21543     21546     21541     21540     21542
     21541     21540     21543     21542     21540     21543     21543     21546     21547
     21543     21546     21548     21543     21546     21549     21544     21543     21545
     21544     21543     21546     21545     21543     21546     21546     21549     21550
     21546     21549     21551     21546     21549     21552     21547     21546     21548
     21547     21546     21549     21548     21546     21549     21549     21552     21553
     21549     21552     21554     21549     21552     21555     21550     21549     21551
     21550     21549     21552     21551     21549     21552     21552     21555     21556
     21552     21555     21557     21552     21555     21558     21553     21552     21554
     21553     21552     21555     21554     21552     21555     21555     21558     21559
     21555     21558     21560     21555     21558     21561     21556     21555     21557
     21556     21555     21558     21557     21555     21558     21558     21561     21562
     21558     21561     21563     21558     21561     21564     21559     21558     21560
     21559     21558     21561     21560     21558     21561     21561     21564     21565
     21561     21564     21566     21561     21564     21567     21562     21561     21563
     21562     21561     21564     21563     21561     21564     21564     21567     21568
     21564     21567     21569     21564     21567     21570     21565     21564     21566
     21565     21564     21567     21566     21564     21567     21567     21570     21571
     21567     21570     21572     21567     21570     21573     21568     21567     21569
     21568     21567     21570     21569     21567     21570     21570     21573     21574
     21570     21573     21575     21570     21573     21576     21571     21570     21572
     21571     21570     21573     21572     21570     21573     21573     21576     21577
     21573     21576     21578     21573     21576     21579     21574     21573     21575
     21574     21573     21576     21575     21573     21576     21576     21579     21580
     21576     21579     21581     21576     21579     21582     21577     21576     21578
     21577     21576     21579     21578     21576     21579     21580     21579     21581
     21580     21579     21582     21581     21579     21582     21583     21584     21585
     21583     21584     21586     21583     21584     21587     21583     21588     21589
     21583     21588     21590     21583     21588     21591     21583     21592     21593
     21583     21592     21594     21583     21592     21595     21583     21596     21597
     21583     21596     21598     21583     21596     21599     21584     21583     21588
     21584     21583     21592     21584     21583     21596     21585     21584     21586
     21585     21584     21587     21586     21584     21587     21588     21583     21592
     21588     21583     21596     21589     21588     21590     21589     21588     21591
     21590     21588     21591     21592     21583     21596     21593     21592     21594
     21593     21592     21595     21594     21592     21595     21596     21599     21600
     21596     21599     21601     21596     21599     21606     21597     21596     21598
     21597     21596     21599     21598     21596     21599     21599     21606     21602
     21600     21599     21601     21600     21599     21606     21601     21599     21606
     21602     21605     21607     21603     21602     21604     21603     21602     21605
     21603     21602     21606     21604     21602     21605     21604     21602     21606
     21605     21602     21606     21605     21607     21608     21605     21607     21609
     21605     21607     21612     21607     21612     21610     21607     21612     21613
     21607     21612     21614     21608     21607     21609     21608     21607     21612
     21609     21607     21612     21610     21612     21613     21610     21612     21614
     21610     21662     21663     21610     21662     21664     21611     21610     21612
     21611     21610     21662     21612     21610     21662     21612     21614     21615
     21612     21614     21616     21612     21614     21618     21613     21612     21614
     21614     21616     21617     21614     21618     21619     21614     21618     21620
     21615     21614     21616     21615     21614     21618     21616     21614     21618
     21618     21620     21621     21618     21620     21622     21619     21618     21620
     21620     21622     21623     21620     21622     21624     21620     21622     21625
     21621     21620     21622     21622     21625     21626     21622     21625     21627
     21622     21625     21628     21623     21622     21624     21623     21622     21625
     21624     21622     21625     21625     21628     21629     21625     21628     21630
     21625     21628     21631     21626     21625     21627     21626     21625     21628
     21627     21625     21628     21628     21631     21632     21628     21631     21633
     21628     21631     21634     21629     21628     21630     21629     21628     21631
     21630     21628     21631     21631     21634     21635     21631     21634     21636
     21631     21634     21637     21632     21631     21633     21632     21631     21634
     21633     21631     21634     21634     21637     21638     21634     21637     21639
     21634     21637     21640     21635     21634     21636     21635     21634     21637
     21636     21634     21637     21637     21640     21641     21637     21640     21642
     21637     21640     21643     21638     21637     21639     21638     21637     21640
     21639     21637     21640     21640     21643     21644     21640     21643     21645
     21640     21643     21646     21641     21640     21642     21641     21640     21643
     21642     21640     21643     21643     21646     21647     21643     21646     21648
     21643     21646     21649     21644     21643     21645     21644     21643     21646
     21645     21643     21646     21646     21649     21650     21646     21649     21651
     21646     21649     21652     21647     21646     21648     21647     21646     21649
     21648     21646     21649     21649     21652     21653     21649     21652     21654
     21649     21652     21655     21650     21649     21651     21650     21649     21652
     21651     21649     21652     21652     21655     21656     21652     21655     21657
     21652     21655     21658     21653     21652     21654     21653     21652     21655
     21654     21652     21655     21655     21658     21659     21655     21658     21660
     21655     21658     21661     21656     21655     21657     21656     21655     21658
     21657     21655     21658     21659     21658     21660     21659     21658     21661
     21660     21658     21661     21662     21664     21665     21662     21664     21666
     21662     21664     21667     21663     21662     21664     21664     21667     21668
     21664     21667     21669     21664     21667     21670     21665     21664     21666
     21665     21664     21667     21666     21664     21667     21667     21670     21671
     21667     21670     21672     21667     21670     21673     21668     21667     21669
     21668     21667     21670     21669     21667     21670     21670     21673     21674
     21670     21673     21675     21670     21673     21676     21671     21670     21672
     21671     21670     21673     21672     21670     21673     21673     21676     21677
     21673     21676     21678     21673     21676     21679     21674     21673     21675
     21674     21673     21676     21675     21673     21676     21676     21679     21680
     21676     21679     21681     21676     21679     21682     21677     21676     21678
     21677     21676     21679     21678     21676     21679     21679     21682     21683
     21679     21682     21684     21679     21682     21685     21680     21679     21681
     21680     21679     21682     21681     21679     21682     21682     21685     21686
     21682     21685     21687     21683     21682     21684     21683     21682     21685
     21684     21682     21685     21685     21687     21688     21685     21687     21689
     21686     21685     21687     21687     21689     21690     21687     21689     21691
     21687     21689     21692     21688     21687     21689     21689     21692     21693
     21689     21692     21694     21689     21692     21695     21690     21689     21691
     21690     21689     21692     21691     21689     21692     21692     21695     21696
     21692     21695     21697     21692     21695     21698     21693     21692     21694
     21693     21692     21695     21694     21692     21695     21695     21698     21699
     21695     21698     21700     21695     21698     21701     21696     21695     21697
     21696     21695     21698     21697     21695     21698     21698     21701     21702
     21698     21701     21703     21698     21701     21704     21699     21698     21700
     21699     21698     21701     21700     21698     21701     21701     21704     21705
     21701     21704     21706     21701     21704     21707     21702     21701     21703
     21702     21701     21704     21703     21701     21704     21704     21707     21708
     21704     21707     21709     21704     21707     21710     21705     21704     21706
     21705     21704     21707     21706     21704     21707     21707     21710     21711
     21707     21710     21712     21707     21710     21713     21708     21707     21709
     21708     21707     21710     21709     21707     21710     21711     21710     21712
     21711     21710     21713     21712     21710     21713     21714     21715     21716
     21714     21715     21717     21714     21715     21718     21714     21719     21720
     21714     21719     21721     21714     21719     21722     21714     21723     21724
     21714     21723     21725     21714     21723     21726     21714     21727     21728
     21714     21727     21729     21714     21727     21730     21715     21714     21719
     21715     21714     21723     21715     21714     21727     21716     21715     21717
     21716     21715     21718     21717     21715     21718     21719     21714     21723
     21719     21714     21727     21720     21719     21721     21720     21719     21722
     21721     21719     21722     21723     21714     21727     21724     21723     21725
     21724     21723     21726     21725     21723     21726     21727     21730     21731
     21727     21730     21732     21727     21730     21737     21728     21727     21729
     21728     21727     21730     21729     21727     21730     21730     21737     21733
     21731     21730     21732     21731     21730     21737     21732     21730     21737
     21733     21736     21738     21734     21733     21735     21734     21733     21736
     21734     21733     21737     21735     21733     21736     21735     21733     21737
     21736     21733     21737     21736     21738     21739     21736     21738     21740
     21736     21738     21743     21738     21743     21741     21738     21743     21744
     21738     21743     21745     21739     21738     21740     21739     21738     21743
     21740     21738     21743     21741     21743     21744     21741     21743     21745
     21741     21793     21794     21741     21793     21795     21742     21741     21743
     21742     21741     21793     21743     21741     21793     21743     21745     21746
     21743     21745     21747     21743     21745     21749     21744     21743     21745
     21745     21747     21748     21745     21749     21750     21745     21749     21751
     21746     21745     21747     21746     21745     21749     21747     21745     21749
     21749     21751     21752     21749     21751     21753     21750     21749     21751
     21751     21753     21754     21751     21753     21755     21751     21753     21756
     21752     21751     21753     21753     21756     21757     21753     21756     21758
     21753     21756     21759     21754     21753     21755     21754     21753     21756
     21755     21753     21756     21756     21759     21760     21756     21759     21761
     21756     21759     21762     21757     21756     21758     21757     21756     21759
     21758     21756     21759     21759     21762     21763     21759     21762     21764
     21759     21762     21765     21760     21759     21761     21760     21759     21762
     21761     21759     21762     21762     21765     21766     21762     21765     21767
     21762     21765     21768     21763     21762     21764     21763     21762     21765
     21764     21762     21765     21765     21768     21769     21765     21768     21770
     21765     21768     21771     21766     21765     21767     21766     21765     21768
     21767     21765     21768     21768     21771     21772     21768     21771     21773
     21768     21771     21774     21769     21768     21770     21769     21768     21771
     21770     21768     21771     21771     21774     21775     21771     21774     21776
     21771     21774     21777     21772     21771     21773     21772     21771     21774
     21773     21771     21774     21774     21777     21778     21774     21777     21779
     21774     21777     21780     21775     21774     21776     21775     21774     21777
     21776     21774     21777     21777     21780     21781     21777     21780     21782
     21777     21780     21783     21778     21777     21779     21778     21777     21780
     21779     21777     21780     21780     21783     21784     21780     21783     21785
     21780     21783     21786     21781     21780     21782     21781     21780     21783
     21782     21780     21783     21783     21786     21787     21783     21786     21788
     21783     21786     21789     21784     21783     21785     21784     21783     21786
     21785     21783     21786     21786     21789     21790     21786     21789     21791
     21786     21789     21792     21787     21786     21788     21787     21786     21789
     21788     21786     21789     21790     21789     21791     21790     21789     21792
     21791     21789     21792     21793     21795     21796     21793     21795     21797
     21793     21795     21798     21794     21793     21795     21795     21798     21799
     21795     21798     21800     21795     21798     21801     21796     21795     21797
     21796     21795     21798     21797     21795     21798     21798     21801     21802
     21798     21801     21803     21798     21801     21804     21799     21798     21800
     21799     21798     21801     21800     21798     21801     21801     21804     21805
     21801     21804     21806     21801     21804     21807     21802     21801     21803
     21802     21801     21804     21803     21801     21804     21804     21807     21808
     21804     21807     21809     21804     21807     21810     21805     21804     21806
     21805     21804     21807     21806     21804     21807     21807     21810     21811
     21807     21810     21812     21807     21810     21813     21808     21807     21809
     21808     21807     21810     21809     21807     21810     21810     21813     21814
     21810     21813     21815     21810     21813     21816     21811     21810     21812
     21811     21810     21813     21812     21810     21813     21813     21816     21817
     21813     21816     21818     21814     21813     21815     21814     21813     21816
     21815     21813     21816     21816     21818     21819     21816     21818     21820
     21817     21816     21818     21818     21820     21821     21818     21820     21822
     21818     21820     21823     21819     21818     21820     21820     21823     21824
     21820     21823     21825     21820     21823     21826     21821     21820     21822
     21821     21820     21823     21822     21820     21823     21823     21826     21827
     21823     21826     21828     21823     21826     21829     21824     21823     21825
     21824     21823     21826     21825     21823     21826     21826     21829     21830
     21826     21829     21831     21826     21829     21832     21827     21826     21828
     21827     21826     21829     21828     21826     21829     21829     21832     21833
     21829     21832     21834     21829     21832     21835     21830     21829     21831
     21830     21829     21832     21831     21829     21832     21832     21835     21836
     21832     21835     21837     21832     21835     21838     21833     21832     21834
     21833     21832     21835     21834     21832     21835     21835     21838     21839
     21835     21838     21840     21835     21838     21841     21836     21835     21837
     21836     21835     21838     21837     21835     21838     21838     21841     21842
     21838     21841     21843     21838     21841     21844     21839     21838     21840
     21839     21838     21841     21840     21838     21841     21842     21841     21843
     21842     21841     21844     21843     21841     21844     21845     21846     21847
     21845     21846     21848     21845     21846     21849     21845     21850     21851
     21845     21850     21852     21845     21850     21853     21845     21854     21855
     21845     21854     21856     21845     21854     21857     21845     21858     21859
     21845     21858     21860     21845     21858     21861     21846     21845     21850
     21846     21845     21854     21846     21845     21858     21847     21846     21848
     21847     21846     21849     21848     21846     21849     21850     21845     21854
     21850     21845     21858     21851     21850     21852     21851     21850     21853
     21852     21850     21853     21854     21845     21858     21855     21854     21856
     21855     21854     21857     21856     21854     21857     21858     21861     21862
     21858     21861     21863     21858     21861     21868     21859     21858     21860
     21859     21858     21861     21860     21858     21861     21861     21868     21864
     21862     21861     21863     21862     21861     21868     21863     21861     21868
     21864     21867     21869     21865     21864     21866     21865     21864     21867
     21865     21864     21868     21866     21864     21867     21866     21864     21868
     21867     21864     21868     21867     21869     21870     21867     21869     21871
     21867     21869     21874     21869     21874     21872     21869     21874     21875
     21869     21874     21876     21870     21869     21871     21870     21869     21874
     21871     21869     21874     21872     21874     21875     21872     21874     21876
     21872     21924     21925     21872     21924     21926     21873     21872     21874
     21873     21872     21924     21874     21872     21924     21874     21876     21877
     21874     21876     21878     21874     21876     21880     21875     21874     21876
     21876     21878     21879     21876     21880     21881     21876     21880     21882
     21877     21876     21878     21877     21876     21880     21878     21876     21880
     21880     21882     21883     21880     21882     21884     21881     21880     21882
     21882     21884     21885     21882     21884     21886     21882     21884     21887
     21883     21882     21884     21884     21887     21888     21884     21887     21889
     21884     21887     21890     21885     21884     21886     21885     21884     21887
     21886     21884     21887     21887     21890     21891     21887     21890     21892
     21887     21890     21893     21888     21887     21889     21888     21887     21890
     21889     21887     21890     21890     21893     21894     21890     21893     21895
     21890     21893     21896     21891     21890     21892     21891     21890     21893
     21892     21890     21893     21893     21896     21897     21893     21896     21898
     21893     21896     21899     21894     21893     21895     21894     21893     21896
     21895     21893     21896     21896     21899     21900     21896     21899     21901
     21896     21899     21902     21897     21896     21898     21897     21896     21899
     21898     21896     21899     21899     21902     21903     21899     21902     21904
     21899     21902     21905     21900     21899     21901     21900     21899     21902
     21901     21899     21902     21902     21905     21906     21902     21905     21907
     21902     21905     21908     21903     21902     21904     21903     21902     21905
     21904     21902     21905     21905     21908     21909     21905     21908     21910
     21905     21908     21911     21906     21905     21907     21906     21905     21908
     21907     21905     21908     21908     21911     21912     21908     21911     21913
     21908     21911     21914     21909     21908     21910     21909     21908     21911
     21910     21908     21911     21911     21914     21915     21911     21914     21916
     21911     21914     21917     21912     21911     21913     21912     21911     21914
     21913     21911     21914     21914     21917     21918     21914     21917     21919
     21914     21917     21920     21915     21914     21916     21915     21914     21917
     21916     21914     21917     21917     21920     21921     21917     21920     21922
     21917     21920     21923     21918     21917     21919     21918     21917     21920
     21919     21917     21920     21921     21920     21922     21921     21920     21923
     21922     21920     21923     21924     21926     21927     21924     21926     21928
     21924     21926     21929     21925     21924     21926     21926     21929     21930
     21926     21929     21931     21926     21929     21932     21927     21926     21928
     21927     21926     21929     21928     21926     21929     21929     21932     21933
     21929     21932     21934     21929     21932     21935     21930     21929     21931
     21930     21929     21932     21931     21929     21932     21932     21935     21936
     21932     21935     21937     21932     21935     21938     21933     21932     21934
     21933     21932     21935     21934     21932     21935     21935     21938     21939
     21935     21938     21940     21935     21938     21941     21936     21935     21937
     21936     21935     21938     21937     21935     21938     21938     21941     21942
     21938     21941     21943     21938     21941     21944     21939     21938     21940
     21939     21938     21941     21940     21938     21941     21941     21944     21945
     21941     21944     21946     21941     21944     21947     21942     21941     21943
     21942     21941     21944     21943     21941     21944     21944     21947     21948
     21944     21947     21949     21945     21944     21946     21945     21944     21947
     21946     21944     21947     21947     21949     21950     21947     21949     21951
     21948     21947     21949     21949     21951     21952     21949     21951     21953
     21949     21951     21954     21950     21949     21951     21951     21954     21955
     21951     21954     21956     21951     21954     21957     21952     21951     21953
     21952     21951     21954     21953     21951     21954     21954     21957     21958
     21954     21957     21959     21954     21957     21960     21955     21954     21956
     21955     21954     21957     21956     21954     21957     21957     21960     21961
     21957     21960     21962     21957     21960     21963     21958     21957     21959
     21958     21957     21960     21959     21957     21960     21960     21963     21964
     21960     21963     21965     21960     21963     21966     21961     21960     21962
     21961     21960     21963     21962     21960     21963     21963     21966     21967
     21963     21966     21968     21963     21966     21969     21964     21963     21965
     21964     21963     21966     21965     21963     21966     21966     21969     21970
     21966     21969     21971     21966     21969     21972     21967     21966     21968
     21967     21966     21969     21968     21966     21969     21969     21972     21973
     21969     21972     21974     21969     21972     21975     21970     21969     21971
     21970     21969     21972     21971     21969     21972     21973     21972     21974
     21973     21972     21975     21974     21972     21975     21976     21977     21978
     21976     21977     21979     21976     21977     21992     21976     21980     21981
     21976     21980     21982     21976     21980     21983     21976     21984     21985
     21976     21984     21986     21976     21984     21987     21976     21988     21989
     21976     21988     21990     21976     21988     21991     21977     21976     21980
     21977     21976     21984     21977     21976     21988     21977     21992     21993
     21977     21992     21994     21977     21992     21998     21978     21977     21979
     21978     21977     21992     21979     21977     21992     21980     21976     21984
     21980     21976     21988     21981     21980     21982     21981     21980     21983
     21982     21980     21983     21984     21976     21988     21985     21984     21986
     21985     21984     21987     21986     21984     21987     21989     21988     21990
     21989     21988     21991     21990     21988     21991     21992     21998     21995
     21993     21992     21994     21993     21992     21998     21994     21992     21998
     21995     21999     22000     21996     21995     21997     21996     21995     21998
     21996     21995     21999     21997     21995     21998     21997     21995     21999
     21998     21995     21999     21999     22000     22001     21999     22000     22002
     21999     22000     22003     22000     22003     22004     22000     22003     22005
     22000     22003     22011     22001     22000     22002     22001     22000     22003
     22002     22000     22003     22003     22005     22006     22003     22011     22012
     22003     22011     22013     22003     22011     22014     22004     22003     22005
     22004     22003     22011     22005     22003     22011     22005     22006     22007
     22005     22006     22008     22006     22008     22009     22006     22008     22010
     22006     22008     22020     22007     22006     22008     22008     22020     22021
     22008     22020     22022     22008     22020     22023     22009     22008     22010
     22009     22008     22020     22010     22008     22020     22011     22014     22015
     22012     22011     22013     22012     22011     22014     22013     22011     22014
     22014     22015     22016     22014     22015     22017     22015     22017     22018
     22015     22017     22019     22015     22017     22067     22016     22015     22017
     22017     22067     22068     22017     22067     22069     22017     22067     22070
     22018     22017     22019     22018     22017     22067     22019     22017     22067
     22020     22023     22024     22020     22023     22025     22020     22023     22026
     22021     22020     22022     22021     22020     22023     22022     22020     22023
     22023     22026     22027     22023     22026     22028     22024     22023     22025
     22024     22023     22026     22025     22023     22026     22026     22028     22029
     22026     22028     22030     22027     22026     22028     22028     22030     22031
     22028     22030     22032     22028     22030     22033     22029     22028     22030
     22030     22033     22034     22030     22033     22035     22031     22030     22032
     22031     22030     22033     22032     22030     22033     22033     22035     22036
     22033     22035     22037     22034     22033     22035     22035     22037     22038
     22035     22037     22039     22035     22037     22040     22036     22035     22037
     22037     22040     22041     22037     22040     22042     22038     22037     22039
     22038     22037     22040     22039     22037     22040     22040     22042     22043
     22040     22042     22044     22041     22040     22042     22042     22044     22045
     22042     22044     22046     22042     22044     22047     22043     22042     22044
     22044     22047     22048     22044     22047     22049     22045     22044     22046
     22045     22044     22047     22046     22044     22047     22047     22049     22050
     22047     22049     22051     22048     22047     22049     22049     22051     22052
     22049     22051     22053     22049     22051     22054     22050     22049     22051
     22051     22054     22055     22051     22054     22056     22051     22054     22057
     22052     22051     22053     22052     22051     22054     22053     22051     22054
     22054     22057     22058     22054     22057     22059     22054     22057     22060
     22055     22054     22056     22055     22054     22057     22056     22054     22057
     22057     22060     22061     22057     22060     22062     22057     22060     22063
     22058     22057     22059     22058     22057     22060     22059     22057     22060
     22060     22063     22064     22060     22063     22065     22060     22063     22066
     22061     22060     22062     22061     22060     22063     22062     22060     22063
     22064     22063     22065     22064     22063     22066     22065     22063     22066
     22067     22070     22071     22067     22070     22072     22067     22070     22073
     22068     22067     22069     22068     22067     22070     22069     22067     22070
     22070     22073     22074     22070     22073     22075     22070     22073     22076
     22071     22070     22072     22071     22070     22073     22072     22070     22073
     22073     22076     22077     22073     22076     22078     22073     22076     22079
     22074     22073     22075     22074     22073     22076     22075     22073     22076
     22076     22079     22080     22076     22079     22081     22076     22079     22082
     22077     22076     22078     22077     22076     22079     22078     22076     22079
     22079     22082     22083     22079     22082     22084     22079     22082     22085
     22080     22079     22081     22080     22079     22082     22081     22079     22082
     22082     22085     22086     22082     22085     22087     22082     22085     22088
     22083     22082     22084     22083     22082     22085     22084     22082     22085
     22085     22088     22089     22085     22088     22090     22085     22088     22091
     22086     22085     22087     22086     22085     22088     22087     22085     22088
     22088     22091     22092     22088     22091     22093     22088     22091     22094
     22089     22088     22090     22089     22088     22091     22090     22088     22091
     22091     22094     22095     22091     22094     22096     22091     22094     22097
     22092     22091     22093     22092     22091     22094     22093     22091     22094
     22094     22097     22098     22094     22097     22099     22094     22097     22100
     22095     22094     22096     22095     22094     22097     22096     22094     22097
     22097     22100     22101     22097     22100     22102     22097     22100     22103
     22098     22097     22099     22098     22097     22100     22099     22097     22100
     22100     22103     22104     22100     22103     22105     22100     22103     22106
     22101     22100     22102     22101     22100     22103     22102     22100     22103
     22103     22106     22107     22103     22106     22108     22103     22106     22109
     22104     22103     22105     22104     22103     22106     22105     22103     22106
     22106     22109     22110     22106     22109     22111     22106     22109     22112
     22107     22106     22108     22107     22106     22109     22108     22106     22109
     22109     22112     22113     22109     22112     22114     22109     22112     22115
     22110     22109     22111     22110     22109     22112     22111     22109     22112
     22113     22112     22114     22113     22112     22115     22114     22112     22115
     22116     22118     22119     22116     22120     22121     22116     22120     22122
     22116     22120     22123     22116     22162     22159     22116     22162     22163
     22116     22162     22164     22117     22116     22118     22117     22116     22120
     22117     22116     22162     22118     22116     22120     22118     22116     22162
     22120     22116     22162     22120     22123     22124     22120     22123     22154
     22121     22120     22122     22121     22120     22123     22122     22120     22123
     22123     22124     22125     22123     22124     22126     22123     22154     22152
     22123     22154     22155     22123     22154     22159     22124     22123     22154
     22124     22126     22127     22124     22126     22128     22124     22126     22129
     22125     22124     22126     22126     22129     22130     22126     22129     22131
     22126     22129     22152     22127     22126     22128     22127     22126     22129
     22128     22126     22129     22129     22131     22132     22129     22131     22133
     22129     22131     22141     22129     22152     22149     22129     22152     22153
     22129     22152     22154     22130     22129     22131     22130     22129     22152
     22131     22129     22152     22131     22133     22134     22131     22133     22135
     22131     22133     22136     22131     22141     22139     22131     22141     22142
     22131     22141     22146     22132     22131     22133     22132     22131     22141
     22133     22131     22141     22133     22136     22137     22133     22136     22138
     22133     22136     22139     22134     22133     22135     22134     22133     22136
     22135     22133     22136     22136     22139     22140     22136     22139     22141
     22136     22139     22165     22137     22136     22138     22137     22136     22139
     22138     22136     22139     22139     22141     22142     22139     22141     22146
     22139     22165     22166     22139     22165     22167     22139     22165     22171
     22140     22139     22141     22140     22139     22165     22141     22139     22165
     22141     22142     22143     22141     22142     22144     22141     22142     22145
     22141     22146     22147     22141     22146     22148     22141     22146     22149
     22142     22141     22146     22143     22142     22144     22143     22142     22145
     22144     22142     22145     22146     22149     22150     22146     22149     22151
     22146     22149     22152     22147     22146     22148     22147     22146     22149
     22148     22146     22149     22149     22152     22153     22149     22152     22154
     22150     22149     22151     22150     22149     22152     22151     22149     22152
     22152     22154     22155     22152     22154     22159     22153     22152     22154
     22154     22155     22156     22154     22155     22157     22154     22155     22158
     22154     22159     22160     22154     22159     22161     22154     22159     22162
     22155     22154     22159     22156     22155     22157     22156     22155     22158
     22157     22155     22158     22159     22162     22163     22159     22162     22164
     22160     22159     22161     22160     22159     22162     22161     22159     22162
     22163     22162     22164     22165     22167     22168     22165     22167     22169
     22165     22167     22170     22165     22171     22172     22165     22171     22173
     22165     22171     22174     22166     22165     22167     22166     22165     22171
     22167     22165     22171     22168     22167     22169     22168     22167     22170
     22169     22167     22170     22171     22174     22175     22171     22174     22176
     22171     22174     22177     22172     22171     22173     22172     22171     22174
     22173     22171     22174     22174     22177     22178     22174     22177     22179
     22174     22177     22180     22175     22174     22176     22175     22174     22177
     22176     22174     22177     22177     22180     22181     22177     22180     22182
     22177     22180     22186     22178     22177     22179     22178     22177     22180
     22179     22177     22180     22180     22182     22183     22180     22182     22184
     22180     22182     22185     22180     22186     22187     22180     22186     22188
     22180     22186     22189     22181     22180     22182     22181     22180     22186
     22182     22180     22186     22183     22182     22184     22183     22182     22185
     22184     22182     22185     22187     22186     22188     22187     22186     22189
     22188     22186     22189     22190     22194     22195     22190     22194     22196
     22190     22194     22197     22191     22190     22192     22191     22190     22193
     22191     22190     22194     22192     22190     22193     22192     22190     22194
     22193     22190     22194     22194     22197     22198     22194     22197     22199
     22194     22197     22203     22195     22194     22196     22195     22194     22197
     22196     22194     22197     22197     22203     22200     22198     22197     22199
     22198     22197     22203     22199     22197     22203     22200     22204     22205
     22201     22200     22202     22201     22200     22203     22201     22200     22204
     22202     22200     22203     22202     22200     22204     22203     22200     22204
     22204     22205     22206     22204     22205     22207     22204     22205     22208
     22205     22208     22209     22205     22208     22210     22205     22208     22216
     22206     22205     22207     22206     22205     22208     22207     22205     22208
     22208     22210     22211     22208     22216     22217     22208     22216     22218
     22208     22216     22219     22209     22208     22210     22209     22208     22216
     22210     22208     22216     22210     22211     22212     22210     22211     22213
     22211     22213     22214     22211     22213     22215     22211     22213     22225
     22212     22211     22213     22213     22225     22226     22213     22225     22227
     22213     22225     22228     22214     22213     22215     22214     22213     22225
     22215     22213     22225     22216     22219     22220     22217     22216     22218
     22217     22216     22219     22218     22216     22219     22219     22220     22221
     22219     22220     22222     22220     22222     22223     22220     22222     22224
     22220     22222     22272     22221     22220     22222     22222     22272     22273
     22222     22272     22274     22222     22272     22275     22223     22222     22224
     22223     22222     22272     22224     22222     22272     22225     22228     22229
     22225     22228     22230     22225     22228     22231     22226     22225     22227
     22226     22225     22228     22227     22225     22228     22228     22231     22232
     22228     22231     22233     22228     22231     22234     22229     22228     22230
     22229     22228     22231     22230     22228     22231     22231     22234     22235
     22231     22234     22236     22231     22234     22237     22232     22231     22233
     22232     22231     22234     22233     22231     22234     22234     22237     22238
     22234     22237     22239     22234     22237     22240     22235     22234     22236
     22235     22234     22237     22236     22234     22237     22237     22240     22241
     22237     22240     22242     22237     22240     22243     22238     22237     22239
     22238     22237     22240     22239     22237     22240     22240     22243     22244
     22240     22243     22245     22241     22240     22242     22241     22240     22243
     22242     22240     22243     22243     22245     22246     22243     22245     22247
     22244     22243     22245     22245     22247     22248     22245     22247     22249
     22245     22247     22250     22246     22245     22247     22247     22250     22251
     22247     22250     22252     22247     22250     22253     22248     22247     22249
     22248     22247     22250     22249     22247     22250     22250     22253     22254
     22250     22253     22255     22250     22253     22256     22251     22250     22252
     22251     22250     22253     22252     22250     22253     22253     22256     22257
     22253     22256     22258     22253     22256     22259     22254     22253     22255
     22254     22253     22256     22255     22253     22256     22256     22259     22260
     22256     22259     22261     22256     22259     22262     22257     22256     22258
     22257     22256     22259     22258     22256     22259     22259     22262     22263
     22259     22262     22264     22259     22262     22265     22260     22259     22261
     22260     22259     22262     22261     22259     22262     22262     22265     22266
     22262     22265     22267     22262     22265     22268     22263     22262     22264
     22263     22262     22265     22264     22262     22265     22265     22268     22269
     22265     22268     22270     22265     22268     22271     22266     22265     22267
     22266     22265     22268     22267     22265     22268     22269     22268     22270
     22269     22268     22271     22270     22268     22271     22272     22275     22276
     22272     22275     22277     22272     22275     22278     22273     22272     22274
     22273     22272     22275     22274     22272     22275     22275     22278     22279
     22275     22278     22280     22275     22278     22281     22276     22275     22277
     22276     22275     22278     22277     22275     22278     22278     22281     22282
     22278     22281     22283     22278     22281     22284     22279     22278     22280
     22279     22278     22281     22280     22278     22281     22281     22284     22285
     22281     22284     22286     22281     22284     22287     22282     22281     22283
     22282     22281     22284     22283     22281     22284     22284     22287     22288
     22284     22287     22289     22284     22287     22290     22285     22284     22286
     22285     22284     22287     22286     22284     22287     22287     22290     22291
     22287     22290     22292     22287     22290     22293     22288     22287     22289
     22288     22287     22290     22289     22287     22290     22290     22293     22294
     22290     22293     22295     22290     22293     22296     22291     22290     22292
     22291     22290     22293     22292     22290     22293     22293     22296     22297
     22293     22296     22298     22293     22296     22299     22294     22293     22295
     22294     22293     22296     22295     22293     22296     22296     22299     22300
     22296     22299     22301     22296     22299     22302     22297     22296     22298
     22297     22296     22299     22298     22296     22299     22299     22302     22303
     22299     22302     22304     22299     22302     22305     22300     22299     22301
     22300     22299     22302     22301     22299     22302     22302     22305     22306
     22302     22305     22307     22302     22305     22308     22303     22302     22304
     22303     22302     22305     22304     22302     22305     22305     22308     22309
     22305     22308     22310     22305     22308     22311     22306     22305     22307
     22306     22305     22308     22307     22305     22308     22308     22311     22312
     22308     22311     22313     22308     22311     22314     22309     22308     22310
     22309     22308     22311     22310     22308     22311     22311     22314     22315
     22311     22314     22316     22311     22314     22317     22312     22311     22313
     22312     22311     22314     22313     22311     22314     22314     22317     22318
     22314     22317     22319     22314     22317     22320     22315     22314     22316
     22315     22314     22317     22316     22314     22317     22318     22317     22319
     22318     22317     22320     22319     22317     22320

     61940 !NPHI: dihedrals
         1         5         8         9         1         5         8        39
         1        47        44        39         1        47        44        45
         1        47        44        46         2         1         3         4
         2         1         5         6         2         1         5         7
         2         1         5         8         2         1        47        44
         2         1        47        48         2         1        47        49
         3         1         5         6         3         1         5         7
         3         1         5         8         3         1        47        44
         3         1        47        48         3         1        47        49
         4         3         1         5         4         3         1        47
         5         1        47        44         5         1        47        48
         5         1        47        49         5         8         9        10
         5         8         9        11         5         8        39        37
         5         8        39        40         5         8        39        44
         6         5         1        47         6         5         8         9
         6         5         8        39         7         5         1        47
         7         5         8         9         7         5         8        39
         8         5         1        47         8         9        11        12
         8         9        11        13         8         9        11        14
         8        39        37        14         8        39        37        34
         8        39        37        38         8        39        40        41
         8        39        40        42         8        39        40        43
         8        39        44        45         8        39        44        46
         8        39        44        47         9         8        39        37
         9         8        39        40         9         8        39        44
         9        11        14        15         9        11        14        16
         9        11        14        37        10         9         8        39
        10         9        11        12        10         9        11        13
        10         9        11        14        11         9         8        39
        11        14        16        17        11        14        16        18
        11        14        16        26        11        14        37        34
        11        14        37        38        11        14        37        39
        12        11        14        15        12        11        14        16
        12        11        14        37        13        11        14        15
        13        11        14        16        13        11        14        37
        14        16        18        19        14        16        18        20
        14        16        18        21        14        16        26        24
        14        16        26        27        14        16        26        31
        14        37        34        31        14        37        34        35
        14        37        34        36        14        37        39        40
        14        37        39        44        15        14        16        17
        15        14        16        18        15        14        16        26
        15        14        37        34        15        14        37        38
        15        14        37        39        16        14        37        34
        16        14        37        38        16        14        37        39
        16        18        21        22        16        18        21        23
        16        18        21        24        16        26        24        21
        16        26        24        25        16        26        24        50
        16        26        27        28        16        26        27        29
        16        26        27        30        16        26        31        32
        16        26        31        33        16        26        31        34
        17        16        14        37        17        16        18        19
        17        16        18        20        17        16        18        21
        17        16        26        24        17        16        26        27
        17        16        26        31        18        16        14        37
        18        16        26        24        18        16        26        27
        18        16        26        31        18        21        24        25
        18        21        24        26        18        21        24        50
        19        18        16        26        19        18        21        22
        19        18        21        23        19        18        21        24
        20        18        16        26        20        18        21        22
        20        18        21        23        20        18        21        24
        21        18        16        26        21        24        26        27
        21        24        26        31        21        24        50        51
        21        24        50        52        21        24        50        56
        22        21        24        25        22        21        24        26
        22        21        24        50        23        21        24        25
        23        21        24        26        23        21        24        50
        24        26        27        28        24        26        27        29
        24        26        27        30        24        26        31        32
        24        26        31        33        24        26        31        34
        24        50        52        53        24        50        52        54
        24        50        52        55        24        50        56        57
        24        50        56        58        24        50        56        59
        25        24        26        27        25        24        26        31
        25        24        50        51        25        24        50        52
        25        24        50        56        26        16        14        37
        26        24        50        51        26        24        50        52
        26        24        50        56        26        31        34        35
        26        31        34        36        26        31        34        37
        27        26        24        50        27        26        31        32
        27        26        31        33        27        26        31        34
        28        27        26        31        29        27        26        31
        30        27        26        31        31        26        24        50
        31        34        37        38        31        34        37        39
        32        31        34        35        32        31        34        36
        32        31        34        37        33        31        34        35
        33        31        34        36        33        31        34        37
        34        37        39        40        34        37        39        44
        35        34        37        38        35        34        37        39
        36        34        37        38        36        34        37        39
        37        39        40        41        37        39        40        42
        37        39        40        43        37        39        44        45
        37        39        44        46        37        39        44        47
        38        37        39        40        38        37        39        44
        39        44        47        48        39        44        47        49
        40        39        44        45        40        39        44        46
        40        39        44        47        41        40        39        44
        42        40        39        44        43        40        39        44
        45        44        47        48        45        44        47        49
        46        44        47        48        46        44        47        49
        50        56        59        60        50        56        59        61
        50        56        59        62        51        50        52        53
        51        50        52        54        51        50        52        55
        51        50        56        57        51        50        56        58
        51        50        56        59        52        50        56        57
        52        50        56        58        52        50        56        59
        53        52        50        56        54        52        50        56
        55        52        50        56        56        59        62        63
        56        59        62        64        56        59        62        65
        57        56        59        60        57        56        59        61
        57        56        59        62        58        56        59        60
        58        56        59        61        58        56        59        62
        59        62        65        66        59        62        65        67
        59        62        65        71        60        59        62        63
        60        59        62        64        60        59        62        65
        61        59        62        63        61        59        62        64
        61        59        62        65        62        65        67        68
        62        65        67        69        62        65        67        70
        62        65        71        72        62        65        71        73
        62        65        71        74        63        62        65        66
        63        62        65        67        63        62        65        71
        64        62        65        66        64        62        65        67
        64        62        65        71        66        65        67        68
        66        65        67        69        66        65        67        70
        66        65        71        72        66        65        71        73
        66        65        71        74        67        65        71        72
        67        65        71        73        67        65        71        74
        68        67        65        71        69        67        65        71
        70        67        65        71        75        88        91        92
        75        88        91        93        75        88        91        97
        76        75        80        81        76        75        80        82
        76        75        80        83        76        75        84        85
        76        75        84        86        76        75        84        87
        76        75        88        89        76        75        88        90
        76        75        88        91        77        76        75        80
        77        76        75        84        77        76        75        88
        78        76        75        80        78        76        75        84
        78        76        75        88        79        76        75        80
        79        76        75        84        79        76        75        88
        80        75        84        85        80        75        84        86
        80        75        84        87        80        75        88        89
        80        75        88        90        80        75        88        91
        81        80        75        84        81        80        75        88
        82        80        75        84        82        80        75        88
        83        80        75        84        83        80        75        88
        84        75        88        89        84        75        88        90
        84        75        88        91        85        84        75        88
        86        84        75        88        87        84        75        88
        88        91        97        94        89        88        91        92
        89        88        91        93        89        88        91        97
        90        88        91        92        90        88        91        93
        90        88        91        97        91        97        94        95
        91        97        94        96        91        97        94        98
        92        91        97        94        93        91        97        94
        94        98        99       100        94        98        99       101
        94        98        99       102        95        94        98        99
        96        94        98        99        97        94        98        99
        98        99       102       103        98        99       102       104
        98        99       102       110        99       102       104       105
        99       102       110       111        99       102       110       112
        99       102       110       113       100        99       102       103
       100        99       102       104       100        99       102       110
       101        99       102       103       101        99       102       104
       101        99       102       110       102       104       105       106
       102       104       105       107       102       110       113       114
       103       102       104       105       103       102       110       111
       103       102       110       112       103       102       110       113
       104       102       110       111       104       102       110       112
       104       102       110       113       104       105       107       108
       104       105       107       109       104       105       107       119
       105       104       102       110       105       107       119       120
       105       107       119       121       105       107       119       122
       106       105       107       108       106       105       107       109
       106       105       107       119       107       119       122       123
       107       119       122       124       107       119       122       125
       108       107       119       120       108       107       119       121
       108       107       119       122       109       107       119       120
       109       107       119       121       109       107       119       122
       110       113       114       115       110       113       114       116
       111       110       113       114       112       110       113       114
       113       114       116       117       113       114       116       118
       113       114       116       164       114       116       164       165
       114       116       164       166       114       116       164       167
       115       114       116       117       115       114       116       118
       115       114       116       164       116       164       167       168
       116       164       167       169       116       164       167       170
       117       116       164       165       117       116       164       166
       117       116       164       167       118       116       164       165
       118       116       164       166       118       116       164       167
       119       122       125       126       119       122       125       127
       119       122       125       128       120       119       122       123
       120       119       122       124       120       119       122       125
       121       119       122       123       121       119       122       124
       121       119       122       125       122       125       128       129
       122       125       128       130       122       125       128       131
       123       122       125       126       123       122       125       127
       123       122       125       128       124       122       125       126
       124       122       125       127       124       122       125       128
       125       128       131       132       125       128       131       133
       125       128       131       134       126       125       128       129
       126       125       128       130       126       125       128       131
       127       125       128       129       127       125       128       130
       127       125       128       131       128       131       134       135
       128       131       134       136       128       131       134       137
       129       128       131       132       129       128       131       133
       129       128       131       134       130       128       131       132
       130       128       131       133       130       128       131       134
       131       134       137       138       131       134       137       139
       132       131       134       135       132       131       134       136
       132       131       134       137       133       131       134       135
       133       131       134       136       133       131       134       137
       134       137       139       140       134       137       139       141
       135       134       137       138       135       134       137       139
       136       134       137       138       136       134       137       139
       137       139       141       142       137       139       141       143
       137       139       141       144       138       137       139       140
       138       137       139       141       139       141       144       145
       139       141       144       146       140       139       141       142
       140       139       141       143       140       139       141       144
       141       144       146       147       141       144       146       148
       142       141       144       145       142       141       144       146
       143       141       144       145       143       141       144       146
       144       146       148       149       144       146       148       150
       144       146       148       151       145       144       146       147
       145       144       146       148       146       148       151       152
       146       148       151       153       146       148       151       154
       147       146       148       149       147       146       148       150
       147       146       148       151       148       151       154       155
       148       151       154       156       148       151       154       157
       149       148       151       152       149       148       151       153
       149       148       151       154       150       148       151       152
       150       148       151       153       150       148       151       154
       151       154       157       158       151       154       157       159
       151       154       157       160       152       151       154       155
       152       151       154       156       152       151       154       157
       153       151       154       155       153       151       154       156
       153       151       154       157       154       157       160       161
       154       157       160       162       154       157       160       163
       155       154       157       158       155       154       157       159
       155       154       157       160       156       154       157       158
       156       154       157       159       156       154       157       160
       158       157       160       161       158       157       160       162
       158       157       160       163       159       157       160       161
       159       157       160       162       159       157       160       163
       164       167       170       171       164       167       170       172
       164       167       170       173       165       164       167       168
       165       164       167       169       165       164       167       170
       166       164       167       168       166       164       167       169
       166       164       167       170       167       170       173       174
       167       170       173       175       167       170       173       176
       168       167       170       171       168       167       170       172
       168       167       170       173       169       167       170       171
       169       167       170       172       169       167       170       173
       170       173       176       177       170       173       176       178
       170       173       176       179       171       170       173       174
       171       170       173       175       171       170       173       176
       172       170       173       174       172       170       173       175
       172       170       173       176       173       176       179       180
       173       176       179       181       173       176       179       182
       174       173       176       177       174       173       176       178
       174       173       176       179       175       173       176       177
       175       173       176       178       175       173       176       179
       176       179       182       183       176       179       182       184
       176       179       182       185       177       176       179       180
       177       176       179       181       177       176       179       182
       178       176       179       180       178       176       179       181
       178       176       179       182       179       182       185       186
       179       182       185       187       179       182       185       188
       180       179       182       183       180       179       182       184
       180       179       182       185       181       179       182       183
       181       179       182       184       181       179       182       185
       182       185       188       189       182       185       188       190
       182       185       188       191       183       182       185       186
       183       182       185       187       183       182       185       188
       184       182       185       186       184       182       185       187
       184       182       185       188       185       188       191       192
       185       188       191       193       185       188       191       194
       186       185       188       189       186       185       188       190
       186       185       188       191       187       185       188       189
       187       185       188       190       187       185       188       191
       188       191       194       195       188       191       194       196
       188       191       194       197       189       188       191       192
       189       188       191       193       189       188       191       194
       190       188       191       192       190       188       191       193
       190       188       191       194       191       194       197       198
       191       194       197       199       191       194       197       200
       192       191       194       195       192       191       194       196
       192       191       194       197       193       191       194       195
       193       191       194       196       193       191       194       197
       194       197       200       201       194       197       200       202
       194       197       200       203       195       194       197       198
       195       194       197       199       195       194       197       200
       196       194       197       198       196       194       197       199
       196       194       197       200       197       200       203       204
       197       200       203       205       197       200       203       206
       198       197       200       201       198       197       200       202
       198       197       200       203       199       197       200       201
       199       197       200       202       199       197       200       203
       200       203       206       207       200       203       206       208
       200       203       206       209       201       200       203       204
       201       200       203       205       201       200       203       206
       202       200       203       204       202       200       203       205
       202       200       203       206       203       206       209       210
       203       206       209       211       203       206       209       212
       204       203       206       207       204       203       206       208
       204       203       206       209       205       203       206       207
       205       203       206       208       205       203       206       209
       207       206       209       210       207       206       209       211
       207       206       209       212       208       206       209       210
       208       206       209       211       208       206       209       212
       213       214       229       230       213       214       229       231
       213       214       229       235       214       213       217       218
       214       213       217       219       214       213       217       220
       214       213       221       222       214       213       221       223
       214       213       221       224       214       213       225       226
       214       213       225       227       214       213       225       228
       214       229       235       232       215       214       213       217
       215       214       213       221       215       214       213       225
       215       214       229       230       215       214       229       231
       215       214       229       235       216       214       213       217
       216       214       213       221       216       214       213       225
       216       214       229       230       216       214       229       231
       216       214       229       235       217       213       214       229
       217       213       221       222       217       213       221       223
       217       213       221       224       217       213       225       226
       217       213       225       227       217       213       225       228
       218       217       213       221       218       217       213       225
       219       217       213       221       219       217       213       225
       220       217       213       221       220       217       213       225
       221       213       214       229       221       213       225       226
       221       213       225       227       221       213       225       228
       222       221       213       225       223       221       213       225
       224       221       213       225       225       213       214       229
       229       235       232       233       229       235       232       234
       229       235       232       236       230       229       235       232
       231       229       235       232       232       236       237       238
       232       236       237       239       232       236       237       240
       233       232       236       237       234       232       236       237
       235       232       236       237       236       237       240       241
       236       237       240       242       236       237       240       248
       237       240       242       243       237       240       248       249
       237       240       248       250       237       240       248       251
       238       237       240       241       238       237       240       242
       238       237       240       248       239       237       240       241
       239       237       240       242       239       237       240       248
       240       242       243       244       240       242       243       245
       240       248       251       252       241       240       242       243
       241       240       248       249       241       240       248       250
       241       240       248       251       242       240       248       249
       242       240       248       250       242       240       248       251
       242       243       245       246       242       243       245       247
       242       243       245       257       243       242       240       248
       243       245       257       258       243       245       257       259
       243       245       257       260       244       243       245       246
       244       243       245       247       244       243       245       257
       245       257       260       261       245       257       260       262
       245       257       260       263       246       245       257       258
       246       245       257       259       246       245       257       260
       247       245       257       258       247       245       257       259
       247       245       257       260       248       251       252       253
       248       251       252       254       249       248       251       252
       250       248       251       252       251       252       254       255
       251       252       254       256       251       252       254       304
       252       254       304       305       252       254       304       306
       252       254       304       307       253       252       254       255
       253       252       254       256       253       252       254       304
       254       304       307       308       254       304       307       309
       254       304       307       310       255       254       304       305
       255       254       304       306       255       254       304       307
       256       254       304       305       256       254       304       306
       256       254       304       307       257       260       263       264
       257       260       263       265       257       260       263       266
       258       257       260       261       258       257       260       262
       258       257       260       263       259       257       260       261
       259       257       260       262       259       257       260       263
       260       263       266       267       260       263       266       268
       260       263       266       269       261       260       263       264
       261       260       263       265       261       260       263       266
       262       260       263       264       262       260       263       265
       262       260       263       266       263       266       269       270
       263       266       269       271       263       266       269       272
       264       263       266       267       264       263       266       268
       264       263       266       269       265       263       266       267
       265       263       266       268       265       263       266       269
       266       269       272       273       266       269       272       274
       266       269       272       275       267       266       269       270
       267       266       269       271       267       266       269       272
       268       266       269       270       268       266       269       271
       268       266       269       272       269       272       275       276
       269       272       275       277       270       269       272       273
       270       269       272       274       270       269       272       275
       271       269       272       273       271       269       272       274
       271       269       272       275       272       275       277       278
       272       275       277       279       273       272       275       276
       273       272       275       277       274       272       275       276
       274       272       275       277       275       277       279       280
       275       277       279       281       275       277       279       282
       276       275       277       278       276       275       277       279
       277       279       282       283       277       279       282       284
       277       279       282       285       278       277       279       280
       278       277       279       281       278       277       279       282
       279       282       285       286       279       282       285       287
       279       282       285       288       280       279       282       283
       280       279       282       284       280       279       282       285
       281       279       282       283       281       279       282       284
       281       279       282       285       282       285       288       289
       282       285       288       290       282       285       288       291
       283       282       285       286       283       282       285       287
       283       282       285       288       284       282       285       286
       284       282       285       287       284       282       285       288
       285       288       291       292       285       288       291       293
       285       288       291       294       286       285       288       289
       286       285       288       290       286       285       288       291
       287       285       288       289       287       285       288       290
       287       285       288       291       288       291       294       295
       288       291       294       296       288       291       294       297
       289       288       291       292       289       288       291       293
       289       288       291       294       290       288       291       292
       290       288       291       293       290       288       291       294
       291       294       297       298       291       294       297       299
       291       294       297       300       292       291       294       295
       292       291       294       296       292       291       294       297
       293       291       294       295       293       291       294       296
       293       291       294       297       294       297       300       301
       294       297       300       302       294       297       300       303
       295       294       297       298       295       294       297       299
       295       294       297       300       296       294       297       298
       296       294       297       299       296       294       297       300
       298       297       300       301       298       297       300       302
       298       297       300       303       299       297       300       301
       299       297       300       302       299       297       300       303
       304       307       310       311       304       307       310       312
       304       307       310       313       305       304       307       308
       305       304       307       309       305       304       307       310
       306       304       307       308       306       304       307       309
       306       304       307       310       307       310       313       314
       307       310       313       315       307       310       313       316
       308       307       310       311       308       307       310       312
       308       307       310       313       309       307       310       311
       309       307       310       312       309       307       310       313
       310       313       316       317       310       313       316       318
       310       313       316       319       311       310       313       314
       311       310       313       315       311       310       313       316
       312       310       313       314       312       310       313       315
       312       310       313       316       313       316       319       320
       313       316       319       321       313       316       319       322
       314       313       316       317       314       313       316       318
       314       313       316       319       315       313       316       317
       315       313       316       318       315       313       316       319
       316       319       322       323       316       319       322       324
       316       319       322       325       317       316       319       320
       317       316       319       321       317       316       319       322
       318       316       319       320       318       316       319       321
       318       316       319       322       319       322       325       326
       319       322       325       327       319       322       325       328
       320       319       322       323       320       319       322       324
       320       319       322       325       321       319       322       323
       321       319       322       324       321       319       322       325
       322       325       328       329       322       325       328       330
       322       325       328       331       323       322       325       326
       323       322       325       327       323       322       325       328
       324       322       325       326       324       322       325       327
       324       322       325       328       325       328       331       332
       325       328       331       333       325       328       331       334
       326       325       328       329       326       325       328       330
       326       325       328       331       327       325       328       329
       327       325       328       330       327       325       328       331
       328       331       334       335       328       331       334       336
       328       331       334       337       329       328       331       332
       329       328       331       333       329       328       331       334
       330       328       331       332       330       328       331       333
       330       328       331       334       331       334       337       338
       331       334       337       339       331       334       337       340
       332       331       334       335       332       331       334       336
       332       331       334       337       333       331       334       335
       333       331       334       336       333       331       334       337
       334       337       340       341       334       337       340       342
       334       337       340       343       335       334       337       338
       335       334       337       339       335       334       337       340
       336       334       337       338       336       334       337       339
       336       334       337       340       337       340       343       344
       337       340       343       345       337       340       343       346
       338       337       340       341       338       337       340       342
       338       337       340       343       339       337       340       341
       339       337       340       342       339       337       340       343
       341       340       343       344       341       340       343       345
       341       340       343       346       342       340       343       344
       342       340       343       345       342       340       343       346
       347       360       363       364       347       360       363       365
       347       360       363       369       348       347       352       353
       348       347       352       354       348       347       352       355
       348       347       356       357       348       347       356       358
       348       347       356       359       348       347       360       361
       348       347       360       362       348       347       360       363
       349       348       347       352       349       348       347       356
       349       348       347       360       350       348       347       352
       350       348       347       356       350       348       347       360
       351       348       347       352       351       348       347       356
       351       348       347       360       352       347       356       357
       352       347       356       358       352       347       356       359
       352       347       360       361       352       347       360       362
       352       347       360       363       353       352       347       356
       353       352       347       360       354       352       347       356
       354       352       347       360       355       352       347       356
       355       352       347       360       356       347       360       361
       356       347       360       362       356       347       360       363
       357       356       347       360       358       356       347       360
       359       356       347       360       360       363       369       366
       361       360       363       364       361       360       363       365
       361       360       363       369       362       360       363       364
       362       360       363       365       362       360       363       369
       363       369       366       367       363       369       366       368
       363       369       366       370       364       363       369       366
       365       363       369       366       366       370       371       372
       366       370       371       373       366       370       371       374
       367       366       370       371       368       366       370       371
       369       366       370       371       370       371       374       375
       370       371       374       376       370       371       374       382
       371       374       376       377       371       374       382       383
       371       374       382       384       371       374       382       385
       372       371       374       375       372       371       374       376
       372       371       374       382       373       371       374       375
       373       371       374       376       373       371       374       382
       374       376       377       378       374       376       377       379
       374       382       385       386       375       374       376       377
       375       374       382       383       375       374       382       384
       375       374       382       385       376       374       382       383
       376       374       382       384       376       374       382       385
       376       377       379       380       376       377       379       381
       376       377       379       391       377       376       374       382
       377       379       391       392       377       379       391       393
       377       379       391       394       378       377       379       380
       378       377       379       381       378       377       379       391
       379       391       394       395       379       391       394       396
       379       391       394       397       380       379       391       392
       380       379       391       393       380       379       391       394
       381       379       391       392       381       379       391       393
       381       379       391       394       382       385       386       387
       382       385       386       388       383       382       385       386
       384       382       385       386       385       386       388       389
       385       386       388       390       385       386       388       436
       386       388       436       437       386       388       436       438
       386       388       436       439       387       386       388       389
       387       386       388       390       387       386       388       436
       388       436       439       440       388       436       439       441
       388       436       439       442       389       388       436       437
       389       388       436       438       389       388       436       439
       390       388       436       437       390       388       436       438
       390       388       436       439       391       394       397       398
       391       394       397       399       391       394       397       400
       392       391       394       395       392       391       394       396
       392       391       394       397       393       391       394       395
       393       391       394       396       393       391       394       397
       394       397       400       401       394       397       400       402
       394       397       400       403       395       394       397       398
       395       394       397       399       395       394       397       400
       396       394       397       398       396       394       397       399
       396       394       397       400       397       400       403       404
       397       400       403       405       397       400       403       406
       398       397       400       401       398       397       400       402
       398       397       400       403       399       397       400       401
       399       397       400       402       399       397       400       403
       400       403       406       407       400       403       406       408
       400       403       406       409       401       400       403       404
       401       400       403       405       401       400       403       406
       402       400       403       404       402       400       403       405
       402       400       403       406       403       406       409       410
       403       406       409       411       404       403       406       407
       404       403       406       408       404       403       406       409
       405       403       406       407       405       403       406       408
       405       403       406       409       406       409       411       412
       406       409       411       413       407       406       409       410
       407       406       409       411       408       406       409       410
       408       406       409       411       409       411       413       414
       409       411       413       415       409       411       413       416
       410       409       411       412       410       409       411       413
       411       413       416       417       411       413       416       418
       412       411       413       414       412       411       413       415
       412       411       413       416       413       416       418       419
       413       416       418       420       414       413       416       417
       414       413       416       418       415       413       416       417
       415       413       416       418       416       418       420       421
       416       418       420       422       416       418       420       423
       417       416       418       419       417       416       418       420
       418       420       423       424       418       420       423       425
       418       420       423       426       419       418       420       421
       419       418       420       422       419       418       420       423
       420       423       426       427       420       423       426       428
       420       423       426       429       421       420       423       424
       421       420       423       425       421       420       423       426
       422       420       423       424       422       420       423       425
       422       420       423       426       423       426       429       430
       423       426       429       431       423       426       429       432
       424       423       426       427       424       423       426       428
       424       423       426       429       425       423       426       427
       425       423       426       428       425       423       426       429
       426       429       432       433       426       429       432       434
       426       429       432       435       427       426       429       430
       427       426       429       431       427       426       429       432
       428       426       429       430       428       426       429       431
       428       426       429       432       430       429       432       433
       430       429       432       434       430       429       432       435
       431       429       432       433       431       429       432       434
       431       429       432       435       436       439       442       443
       436       439       442       444       436       439       442       445
       437       436       439       440       437       436       439       441
       437       436       439       442       438       436       439       440
       438       436       439       441       438       436       439       442
       439       442       445       446       439       442       445       447
       439       442       445       448       440       439       442       443
       440       439       442       444       440       439       442       445
       441       439       442       443       441       439       442       444
       441       439       442       445       442       445       448       449
       442       445       448       450       442       445       448       451
       443       442       445       446       443       442       445       447
       443       442       445       448       444       442       445       446
       444       442       445       447       444       442       445       448
       445       448       451       452       445       448       451       453
       445       448       451       454       446       445       448       449
       446       445       448       450       446       445       448       451
       447       445       448       449       447       445       448       450
       447       445       448       451       448       451       454       455
       448       451       454       456       448       451       454       457
       449       448       451       452       449       448       451       453
       449       448       451       454       450       448       451       452
       450       448       451       453       450       448       451       454
       451       454       457       458       451       454       457       459
       451       454       457       460       452       451       454       455
       452       451       454       456       452       451       454       457
       453       451       454       455       453       451       454       456
       453       451       454       457       454       457       460       461
       454       457       460       462       454       457       460       463
       455       454       457       458       455       454       457       459
       455       454       457       460       456       454       457       458
       456       454       457       459       456       454       457       460
       457       460       463       464       457       460       463       465
       457       460       463       466       458       457       460       461
       458       457       460       462       458       457       460       463
       459       457       460       461       459       457       460       462
       459       457       460       463       460       463       466       467
       460       463       466       468       460       463       466       469
       461       460       463       464       461       460       463       465
       461       460       463       466       462       460       463       464
       462       460       463       465       462       460       463       466
       463       466       469       470       463       466       469       471
       463       466       469       472       464       463       466       467
       464       463       466       468       464       463       466       469
       465       463       466       467       465       463       466       468
       465       463       466       469       466       469       472       473
       466       469       472       474       466       469       472       475
       467       466       469       470       467       466       469       471
       467       466       469       472       468       466       469       470
       468       466       469       471       468       466       469       472
       469       472       475       476       469       472       475       477
       469       472       475       478       470       469       472       473
       470       469       472       474       470       469       472       475
       471       469       472       473       471       469       472       474
       471       469       472       475       472       475       478       479
       472       475       478       480       472       475       478       481
       473       472       475       476       473       472       475       477
       473       472       475       478       474       472       475       476
       474       472       475       477       474       472       475       478
       475       478       481       482       475       478       481       483
       475       478       481       484       476       475       478       479
       476       475       478       480       476       475       478       481
       477       475       478       479       477       475       478       480
       477       475       478       481       479       478       481       482
       479       478       481       483       479       478       481       484
       480       478       481       482       480       478       481       483
       480       478       481       484       485       498       501       502
       485       498       501       503       485       498       501       508
       486       485       490       491       486       485       490       492
       486       485       490       493       486       485       494       495
       486       485       494       496       486       485       494       497
       486       485       498       499       486       485       498       500
       486       485       498       501       487       486       485       490
       487       486       485       494       487       486       485       498
       488       486       485       490       488       486       485       494
       488       486       485       498       489       486       485       490
       489       486       485       494       489       486       485       498
       490       485       494       495       490       485       494       496
       490       485       494       497       490       485       498       499
       490       485       498       500       490       485       498       501
       491       490       485       494       491       490       485       498
       492       490       485       494       492       490       485       498
       493       490       485       494       493       490       485       498
       494       485       498       499       494       485       498       500
       494       485       498       501       495       494       485       498
       496       494       485       498       497       494       485       498
       498       501       508       504       499       498       501       502
       499       498       501       503       499       498       501       508
       500       498       501       502       500       498       501       503
       500       498       501       508       501       508       504       505
       501       508       504       506       501       508       504       507
       502       501       508       504       503       501       508       504
       504       507       509       510       504       507       509       511
       504       507       509       514       505       504       507       509
       506       504       507       509       507       509       514       512
       507       509       514       515       507       509       514       516
       508       504       507       509       509       514       512       513
       509       514       512       564       509       514       516       517
       509       514       516       518       509       514       516       520
       510       509       514       512       510       509       514       515
       510       509       514       516       511       509       514       512
       511       509       514       515       511       509       514       516
       512       514       516       517       512       514       516       518
       512       514       516       520       512       564       566       567
       512       564       566       568       512       564       566       569
       513       512       514       515       513       512       514       516
       513       512       564       565       513       512       564       566
       514       512       564       565       514       512       564       566
       514       516       518       519       514       516       520       521
       514       516       520       522       515       514       512       564
       515       514       516       517       515       514       516       518
       515       514       516       520       516       514       512       564
       516       520       522       523       516       520       522       524
       517       516       518       519       517       516       520       521
       517       516       520       522       518       516       520       521
       518       516       520       522       519       518       516       520
       520       522       524       525       520       522       524       526
       520       522       524       527       521       520       522       523
       521       520       522       524       522       524       527       528
       522       524       527       529       522       524       527       530
       523       522       524       525       523       522       524       526
       523       522       524       527       524       527       530       531
       524       527       530       532       524       527       530       533
       525       524       527       528       525       524       527       529
       525       524       527       530       526       524       527       528
       526       524       527       529       526       524       527       530
       527       530       533       534       527       530       533       535
       527       530       533       536       528       527       530       531
       528       527       530       532       528       527       530       533
       529       527       530       531       529       527       530       532
       529       527       530       533       530       533       536       537
       530       533       536       538       530       533       536       539
       531       530       533       534       531       530       533       535
       531       530       533       536       532       530       533       534
       532       530       533       535       532       530       533       536
       533       536       539       540       533       536       539       541
       533       536       539       542       534       533       536       537
       534       533       536       538       534       533       536       539
       535       533       536       537       535       533       536       538
       535       533       536       539       536       539       542       543
       536       539       542       544       536       539       542       545
       537       536       539       540       537       536       539       541
       537       536       539       542       538       536       539       540
       538       536       539       541       538       536       539       542
       539       542       545       546       539       542       545       547
       539       542       545       548       540       539       542       543
       540       539       542       544       540       539       542       545
       541       539       542       543       541       539       542       544
       541       539       542       545       542       545       548       549
       542       545       548       550       542       545       548       551
       543       542       545       546       543       542       545       547
       543       542       545       548       544       542       545       546
       544       542       545       547       544       542       545       548
       545       548       551       552       545       548       551       553
       545       548       551       554       546       545       548       549
       546       545       548       550       546       545       548       551
       547       545       548       549       547       545       548       550
       547       545       548       551       548       551       554       555
       548       551       554       556       548       551       554       557
       549       548       551       552       549       548       551       553
       549       548       551       554       550       548       551       552
       550       548       551       553       550       548       551       554
       551       554       557       558       551       554       557       559
       551       554       557       560       552       551       554       555
       552       551       554       556       552       551       554       557
       553       551       554       555       553       551       554       556
       553       551       554       557       554       557       560       561
       554       557       560       562       554       557       560       563
       555       554       557       558       555       554       557       559
       555       554       557       560       556       554       557       558
       556       554       557       559       556       554       557       560
       558       557       560       561       558       557       560       562
       558       557       560       563       559       557       560       561
       559       557       560       562       559       557       560       563
       564       566       569       570       564       566       569       571
       564       566       569       572       565       564       566       567
       565       564       566       568       565       564       566       569
       566       569       572       573       566       569       572       574
       566       569       572       575       567       566       569       570
       567       566       569       571       567       566       569       572
       568       566       569       570       568       566       569       571
       568       566       569       572       569       572       575       576
       569       572       575       577       569       572       575       578
       570       569       572       573       570       569       572       574
       570       569       572       575       571       569       572       573
       571       569       572       574       571       569       572       575
       572       575       578       579       572       575       578       580
       572       575       578       581       573       572       575       576
       573       572       575       577       573       572       575       578
       574       572       575       576       574       572       575       577
       574       572       575       578       575       578       581       582
       575       578       581       583       575       578       581       584
       576       575       578       579       576       575       578       580
       576       575       578       581       577       575       578       579
       577       575       578       580       577       575       578       581
       578       581       584       585       578       581       584       586
       578       581       584       587       579       578       581       582
       579       578       581       583       579       578       581       584
       580       578       581       582       580       578       581       583
       580       578       581       584       581       584       587       588
       581       584       587       589       582       581       584       585
       582       581       584       586       582       581       584       587
       583       581       584       585       583       581       584       586
       583       581       584       587       584       587       589       590
       584       587       589       591       585       584       587       588
       585       584       587       589       586       584       587       588
       586       584       587       589       587       589       591       592
       587       589       591       593       587       589       591       594
       588       587       589       590       588       587       589       591
       589       591       594       595       589       591       594       596
       589       591       594       597       590       589       591       592
       590       589       591       593       590       589       591       594
       591       594       597       598       591       594       597       599
       591       594       597       600       592       591       594       595
       592       591       594       596       592       591       594       597
       593       591       594       595       593       591       594       596
       593       591       594       597       594       597       600       601
       594       597       600       602       594       597       600       603
       595       594       597       598       595       594       597       599
       595       594       597       600       596       594       597       598
       596       594       597       599       596       594       597       600
       597       600       603       604       597       600       603       605
       597       600       603       606       598       597       600       601
       598       597       600       602       598       597       600       603
       599       597       600       601       599       597       600       602
       599       597       600       603       600       603       606       607
       600       603       606       608       600       603       606       609
       601       600       603       604       601       600       603       605
       601       600       603       606       602       600       603       604
       602       600       603       605       602       600       603       606
       603       606       609       610       603       606       609       611
       603       606       609       612       604       603       606       607
       604       603       606       608       604       603       606       609
       605       603       606       607       605       603       606       608
       605       603       606       609       606       609       612       613
       606       609       612       614       606       609       612       615
       607       606       609       610       607       606       609       611
       607       606       609       612       608       606       609       610
       608       606       609       611       608       606       609       612
       610       609       612       613       610       609       612       614
       610       609       612       615       611       609       612       613
       611       609       612       614       611       609       612       615
       616       620       623       624       616       620       623       654
       616       662       659       654       616       662       659       660
       616       662       659       661       617       616       618       619
       617       616       620       621       617       616       620       622
       617       616       620       623       617       616       662       659
       617       616       662       663       617       616       662       664
       618       616       620       621       618       616       620       622
       618       616       620       623       618       616       662       659
       618       616       662       663       618       616       662       664
       619       618       616       620       619       618       616       662
       620       616       662       659       620       616       662       663
       620       616       662       664       620       623       624       625
       620       623       624       626       620       623       654       652
       620       623       654       655       620       623       654       659
       621       620       616       662       621       620       623       624
       621       620       623       654       622       620       616       662
       622       620       623       624       622       620       623       654
       623       620       616       662       623       624       626       627
       623       624       626       628       623       624       626       629
       623       654       652       629       623       654       652       649
       623       654       652       653       623       654       655       656
       623       654       655       657       623       654       655       658
       623       654       659       660       623       654       659       661
       623       654       659       662       624       623       654       652
       624       623       654       655       624       623       654       659
       624       626       629       630       624       626       629       631
       624       626       629       652       625       624       623       654
       625       624       626       627       625       624       626       628
       625       624       626       629       626       624       623       654
       626       629       631       632       626       629       631       633
       626       629       631       641       626       629       652       649
       626       629       652       653       626       629       652       654
       627       626       629       630       627       626       629       631
       627       626       629       652       628       626       629       630
       628       626       629       631       628       626       629       652
       629       631       633       634       629       631       633       635
       629       631       633       636       629       631       641       639
       629       631       641       642       629       631       641       646
       629       652       649       646       629       652       649       650
       629       652       649       651       629       652       654       655
       629       652       654       659       630       629       631       632
       630       629       631       633       630       629       631       641
       630       629       652       649       630       629       652       653
       630       629       652       654       631       629       652       649
       631       629       652       653       631       629       652       654
       631       633       636       637       631       633       636       638
       631       633       636       639       631       641       639       636
       631       641       639       640       631       641       639       665
       631       641       642       643       631       641       642       644
       631       641       642       645       631       641       646       647
       631       641       646       648       631       641       646       649
       632       631       629       652       632       631       633       634
       632       631       633       635       632       631       633       636
       632       631       641       639       632       631       641       642
       632       631       641       646       633       631       629       652
       633       631       641       639       633       631       641       642
       633       631       641       646       633       636       639       640
       633       636       639       641       633       636       639       665
       634       633       631       641       634       633       636       637
       634       633       636       638       634       633       636       639
       635       633       631       641       635       633       636       637
       635       633       636       638       635       633       636       639
       636       633       631       641       636       639       641       642
       636       639       641       646       636       639       665       666
       636       639       665       667       636       639       665       671
       637       636       639       640       637       636       639       641
       637       636       639       665       638       636       639       640
       638       636       639       641       638       636       639       665
       639       641       642       643       639       641       642       644
       639       641       642       645       639       641       646       647
       639       641       646       648       639       641       646       649
       639       665       667       668       639       665       667       669
       639       665       667       670       639       665       671       672
       639       665       671       673       639       665       671       674
       640       639       641       642       640       639       641       646
       640       639       665       666       640       639       665       667
       640       639       665       671       641       631       629       652
       641       639       665       666       641       639       665       667
       641       639       665       671       641       646       649       650
       641       646       649       651       641       646       649       652
       642       641       639       665       642       641       646       647
       642       641       646       648       642       641       646       649
       643       642       641       646       644       642       641       646
       645       642       641       646       646       641       639       665
       646       649       652       653       646       649       652       654
       647       646       649       650       647       646       649       651
       647       646       649       652       648       646       649       650
       648       646       649       651       648       646       649       652
       649       652       654       655       649       652       654       659
       650       649       652       653       650       649       652       654
       651       649       652       653       651       649       652       654
       652       654       655       656       652       654       655       657
       652       654       655       658       652       654       659       660
       652       654       659       661       652       654       659       662
       653       652       654       655       653       652       654       659
       654       659       662       663       654       659       662       664
       655       654       659       660       655       654       659       661
       655       654       659       662       656       655       654       659
       657       655       654       659       658       655       654       659
       660       659       662       663       660       659       662       664
       661       659       662       663       661       659       662       664
       665       671       674       675       665       671       674       676
       665       671       674       677       666       665       667       668
       666       665       667       669       666       665       667       670
       666       665       671       672       666       665       671       673
       666       665       671       674       667       665       671       672
       667       665       671       673       667       665       671       674
       668       667       665       671       669       667       665       671
       670       667       665       671       671       674       677       678
       671       674       677       679       671       674       677       680
       672       671       674       675       672       671       674       676
       672       671       674       677       673       671       674       675
       673       671       674       676       673       671       674       677
       674       677       680       681       674       677       680       682
       674       677       680       686       675       674       677       678
       675       674       677       679       675       674       677       680
       676       674       677       678       676       674       677       679
       676       674       677       680       677       680       682       683
       677       680       682       684       677       680       682       685
       677       680       686       687       677       680       686       688
       677       680       686       689       678       677       680       681
       678       677       680       682       678       677       680       686
       679       677       680       681       679       677       680       682
       679       677       680       686       681       680       682       683
       681       680       682       684       681       680       682       685
       681       680       686       687       681       680       686       688
       681       680       686       689       682       680       686       687
       682       680       686       688       682       680       686       689
       683       682       680       686       684       682       680       686
       685       682       680       686       690       703       706       707
       690       703       706       708       690       703       706       713
       691       690       695       696       691       690       695       697
       691       690       695       698       691       690       699       700
       691       690       699       701       691       690       699       702
       691       690       703       704       691       690       703       705
       691       690       703       706       692       691       690       695
       692       691       690       699       692       691       690       703
       693       691       690       695       693       691       690       699
       693       691       690       703       694       691       690       695
       694       691       690       699       694       691       690       703
       695       690       699       700       695       690       699       701
       695       690       699       702       695       690       703       704
       695       690       703       705       695       690       703       706
       696       695       690       699       696       695       690       703
       697       695       690       699       697       695       690       703
       698       695       690       699       698       695       690       703
       699       690       703       704       699       690       703       705
       699       690       703       706       700       699       690       703
       701       699       690       703       702       699       690       703
       703       706       713       709       704       703       706       707
       704       703       706       708       704       703       706       713
       705       703       706       707       705       703       706       708
       705       703       706       713       706       713       709       710
       706       713       709       711       706       713       709       712
       707       706       713       709       708       706       713       709
       709       712       714       715       709       712       714       716
       709       712       714       719       710       709       712       714
       711       709       712       714       712       714       719       717
       712       714       719       720       712       714       719       721
       713       709       712       714       714       719       717       718
       714       719       717       769       714       719       721       722
       714       719       721       723       714       719       721       725
       715       714       719       717       715       714       719       720
       715       714       719       721       716       714       719       717
       716       714       719       720       716       714       719       721
       717       719       721       722       717       719       721       723
       717       719       721       725       717       769       771       772
       717       769       771       773       717       769       771       774
       718       717       719       720       718       717       719       721
       718       717       769       770       718       717       769       771
       719       717       769       770       719       717       769       771
       719       721       723       724       719       721       725       726
       719       721       725       727       720       719       717       769
       720       719       721       722       720       719       721       723
       720       719       721       725       721       719       717       769
       721       725       727       728       721       725       727       729
       722       721       723       724       722       721       725       726
       722       721       725       727       723       721       725       726
       723       721       725       727       724       723       721       725
       725       727       729       730       725       727       729       731
       725       727       729       732       726       725       727       728
       726       725       727       729       727       729       732       733
       727       729       732       734       727       729       732       735
       728       727       729       730       728       727       729       731
       728       727       729       732       729       732       735       736
       729       732       735       737       729       732       735       738
       730       729       732       733       730       729       732       734
       730       729       732       735       731       729       732       733
       731       729       732       734       731       729       732       735
       732       735       738       739       732       735       738       740
       732       735       738       741       733       732       735       736
       733       732       735       737       733       732       735       738
       734       732       735       736       734       732       735       737
       734       732       735       738       735       738       741       742
       735       738       741       743       735       738       741       744
       736       735       738       739       736       735       738       740
       736       735       738       741       737       735       738       739
       737       735       738       740       737       735       738       741
       738       741       744       745       738       741       744       746
       738       741       744       747       739       738       741       742
       739       738       741       743       739       738       741       744
       740       738       741       742       740       738       741       743
       740       738       741       744       741       744       747       748
       741       744       747       749       741       744       747       750
       742       741       744       745       742       741       744       746
       742       741       744       747       743       741       744       745
       743       741       744       746       743       741       744       747
       744       747       750       751       744       747       750       752
       744       747       750       753       745       744       747       748
       745       744       747       749       745       744       747       750
       746       744       747       748       746       744       747       749
       746       744       747       750       747       750       753       754
       747       750       753       755       747       750       753       756
       748       747       750       751       748       747       750       752
       748       747       750       753       749       747       750       751
       749       747       750       752       749       747       750       753
       750       753       756       757       750       753       756       758
       750       753       756       759       751       750       753       754
       751       750       753       755       751       750       753       756
       752       750       753       754       752       750       753       755
       752       750       753       756       753       756       759       760
       753       756       759       761       753       756       759       762
       754       753       756       757       754       753       756       758
       754       753       756       759       755       753       756       757
       755       753       756       758       755       753       756       759
       756       759       762       763       756       759       762       764
       756       759       762       765       757       756       759       760
       757       756       759       761       757       756       759       762
       758       756       759       760       758       756       759       761
       758       756       759       762       759       762       765       766
       759       762       765       767       759       762       765       768
       760       759       762       763       760       759       762       764
       760       759       762       765       761       759       762       763
       761       759       762       764       761       759       762       765
       763       762       765       766       763       762       765       767
       763       762       765       768       764       762       765       766
       764       762       765       767       764       762       765       768
       769       771       774       775       769       771       774       776
       769       771       774       777       770       769       771       772
       770       769       771       773       770       769       771       774
       771       774       777       778       771       774       777       779
       771       774       777       780       772       771       774       775
       772       771       774       776       772       771       774       777
       773       771       774       775       773       771       774       776
       773       771       774       777       774       777       780       781
       774       777       780       782       774       777       780       783
       775       774       777       778       775       774       777       779
       775       774       777       780       776       774       777       778
       776       774       777       779       776       774       777       780
       777       780       783       784       777       780       783       785
       777       780       783       786       778       777       780       781
       778       777       780       782       778       777       780       783
       779       777       780       781       779       777       780       782
       779       777       780       783       780       783       786       787
       780       783       786       788       780       783       786       789
       781       780       783       784       781       780       783       785
       781       780       783       786       782       780       783       784
       782       780       783       785       782       780       783       786
       783       786       789       790       783       786       789       791
       783       786       789       792       784       783       786       787
       784       783       786       788       784       783       786       789
       785       783       786       787       785       783       786       788
       785       783       786       789       786       789       792       793
       786       789       792       794       787       786       789       790
       787       786       789       791       787       786       789       792
       788       786       789       790       788       786       789       791
       788       786       789       792       789       792       794       795
       789       792       794       796       790       789       792       793
       790       789       792       794       791       789       792       793
       791       789       792       794       792       794       796       797
       792       794       796       798       792       794       796       799
       793       792       794       795       793       792       794       796
       794       796       799       800       794       796       799       801
       794       796       799       802       795       794       796       797
       795       794       796       798       795       794       796       799
       796       799       802       803       796       799       802       804
       796       799       802       805       797       796       799       800
       797       796       799       801       797       796       799       802
       798       796       799       800       798       796       799       801
       798       796       799       802       799       802       805       806
       799       802       805       807       799       802       805       808
       800       799       802       803       800       799       802       804
       800       799       802       805       801       799       802       803
       801       799       802       804       801       799       802       805
       802       805       808       809       802       805       808       810
       802       805       808       811       803       802       805       806
       803       802       805       807       803       802       805       808
       804       802       805       806       804       802       805       807
       804       802       805       808       805       808       811       812
       805       808       811       813       805       808       811       814
       806       805       808       809       806       805       808       810
       806       805       808       811       807       805       808       809
       807       805       808       810       807       805       808       811
       808       811       814       815       808       811       814       816
       808       811       814       817       809       808       811       812
       809       808       811       813       809       808       811       814
       810       808       811       812       810       808       811       813
       810       808       811       814       811       814       817       818
       811       814       817       819       811       814       817       820
       812       811       814       815       812       811       814       816
       812       811       814       817       813       811       814       815
       813       811       814       816       813       811       814       817
       815       814       817       818       815       814       817       819
       815       814       817       820       816       814       817       818
       816       814       817       819       816       814       817       820
       821       825       828       829       821       825       828       859
       821       867       864       859       821       867       864       865
       821       867       864       866       822       821       823       824
       822       821       825       826       822       821       825       827
       822       821       825       828       822       821       867       864
       822       821       867       868       822       821       867       869
       823       821       825       826       823       821       825       827
       823       821       825       828       823       821       867       864
       823       821       867       868       823       821       867       869
       824       823       821       825       824       823       821       867
       825       821       867       864       825       821       867       868
       825       821       867       869       825       828       829       830
       825       828       829       831       825       828       859       857
       825       828       859       860       825       828       859       864
       826       825       821       867       826       825       828       829
       826       825       828       859       827       825       821       867
       827       825       828       829       827       825       828       859
       828       825       821       867       828       829       831       832
       828       829       831       833       828       829       831       834
       828       859       857       834       828       859       857       854
       828       859       857       858       828       859       860       861
       828       859       860       862       828       859       860       863
       828       859       864       865       828       859       864       866
       828       859       864       867       829       828       859       857
       829       828       859       860       829       828       859       864
       829       831       834       835       829       831       834       836
       829       831       834       857       830       829       828       859
       830       829       831       832       830       829       831       833
       830       829       831       834       831       829       828       859
       831       834       836       837       831       834       836       838
       831       834       836       846       831       834       857       854
       831       834       857       858       831       834       857       859
       832       831       834       835       832       831       834       836
       832       831       834       857       833       831       834       835
       833       831       834       836       833       831       834       857
       834       836       838       839       834       836       838       840
       834       836       838       841       834       836       846       844
       834       836       846       847       834       836       846       851
       834       857       854       851       834       857       854       855
       834       857       854       856       834       857       859       860
       834       857       859       864       835       834       836       837
       835       834       836       838       835       834       836       846
       835       834       857       854       835       834       857       858
       835       834       857       859       836       834       857       854
       836       834       857       858       836       834       857       859
       836       838       841       842       836       838       841       843
       836       838       841       844       836       846       844       841
       836       846       844       845       836       846       844       870
       836       846       847       848       836       846       847       849
       836       846       847       850       836       846       851       852
       836       846       851       853       836       846       851       854
       837       836       834       857       837       836       838       839
       837       836       838       840       837       836       838       841
       837       836       846       844       837       836       846       847
       837       836       846       851       838       836       834       857
       838       836       846       844       838       836       846       847
       838       836       846       851       838       841       844       845
       838       841       844       846       838       841       844       870
       839       838       836       846       839       838       841       842
       839       838       841       843       839       838       841       844
       840       838       836       846       840       838       841       842
       840       838       841       843       840       838       841       844
       841       838       836       846       841       844       846       847
       841       844       846       851       841       844       870       871
       841       844       870       872       841       844       870       876
       842       841       844       845       842       841       844       846
       842       841       844       870       843       841       844       845
       843       841       844       846       843       841       844       870
       844       846       847       848       844       846       847       849
       844       846       847       850       844       846       851       852
       844       846       851       853       844       846       851       854
       844       870       872       873       844       870       872       874
       844       870       872       875       844       870       876       877
       844       870       876       878       844       870       876       879
       845       844       846       847       845       844       846       851
       845       844       870       871       845       844       870       872
       845       844       870       876       846       836       834       857
       846       844       870       871       846       844       870       872
       846       844       870       876       846       851       854       855
       846       851       854       856       846       851       854       857
       847       846       844       870       847       846       851       852
       847       846       851       853       847       846       851       854
       848       847       846       851       849       847       846       851
       850       847       846       851       851       846       844       870
       851       854       857       858       851       854       857       859
       852       851       854       855       852       851       854       856
       852       851       854       857       853       851       854       855
       853       851       854       856       853       851       854       857
       854       857       859       860       854       857       859       864
       855       854       857       858       855       854       857       859
       856       854       857       858       856       854       857       859
       857       859       860       861       857       859       860       862
       857       859       860       863       857       859       864       865
       857       859       864       866       857       859       864       867
       858       857       859       860       858       857       859       864
       859       864       867       868       859       864       867       869
       860       859       864       865       860       859       864       866
       860       859       864       867       861       860       859       864
       862       860       859       864       863       860       859       864
       865       864       867       868       865       864       867       869
       866       864       867       868       866       864       867       869
       870       876       879       880       870       876       879       881
       870       876       879       882       871       870       872       873
       871       870       872       874       871       870       872       875
       871       870       876       877       871       870       876       878
       871       870       876       879       872       870       876       877
       872       870       876       878       872       870       876       879
       873       872       870       876       874       872       870       876
       875       872       870       876       876       879       882       883
       876       879       882       884       876       879       882       885
       877       876       879       880       877       876       879       881
       877       876       879       882       878       876       879       880
       878       876       879       881       878       876       879       882
       879       882       885       886       879       882       885       887
       879       882       885       891       880       879       882       883
       880       879       882       884       880       879       882       885
       881       879       882       883       881       879       882       884
       881       879       882       885       882       885       887       888
       882       885       887       889       882       885       887       890
       882       885       891       892       882       885       891       893
       882       885       891       894       883       882       885       886
       883       882       885       887       883       882       885       891
       884       882       885       886       884       882       885       887
       884       882       885       891       886       885       887       888
       886       885       887       889       886       885       887       890
       886       885       891       892       886       885       891       893
       886       885       891       894       887       885       891       892
       887       885       891       893       887       885       891       894
       888       887       885       891       889       887       885       891
       890       887       885       891       895       908       911       912
       895       908       911       913       895       908       911       918
       896       895       900       901       896       895       900       902
       896       895       900       903       896       895       904       905
       896       895       904       906       896       895       904       907
       896       895       908       909       896       895       908       910
       896       895       908       911       897       896       895       900
       897       896       895       904       897       896       895       908
       898       896       895       900       898       896       895       904
       898       896       895       908       899       896       895       900
       899       896       895       904       899       896       895       908
       900       895       904       905       900       895       904       906
       900       895       904       907       900       895       908       909
       900       895       908       910       900       895       908       911
       901       900       895       904       901       900       895       908
       902       900       895       904       902       900       895       908
       903       900       895       904       903       900       895       908
       904       895       908       909       904       895       908       910
       904       895       908       911       905       904       895       908
       906       904       895       908       907       904       895       908
       908       911       918       914       909       908       911       912
       909       908       911       913       909       908       911       918
       910       908       911       912       910       908       911       913
       910       908       911       918       911       918       914       915
       911       918       914       916       911       918       914       917
       912       911       918       914       913       911       918       914
       914       917       919       920       914       917       919       921
       914       917       919       924       915       914       917       919
       916       914       917       919       917       919       924       922
       917       919       924       925       917       919       924       926
       918       914       917       919       919       924       922       923
       919       924       922       974       919       924       926       927
       919       924       926       928       919       924       926       930
       920       919       924       922       920       919       924       925
       920       919       924       926       921       919       924       922
       921       919       924       925       921       919       924       926
       922       924       926       927       922       924       926       928
       922       924       926       930       922       974       976       977
       922       974       976       978       922       974       976       979
       923       922       924       925       923       922       924       926
       923       922       974       975       923       922       974       976
       924       922       974       975       924       922       974       976
       924       926       928       929       924       926       930       931
       924       926       930       932       925       924       922       974
       925       924       926       927       925       924       926       928
       925       924       926       930       926       924       922       974
       926       930       932       933       926       930       932       934
       927       926       928       929       927       926       930       931
       927       926       930       932       928       926       930       931
       928       926       930       932       929       928       926       930
       930       932       934       935       930       932       934       936
       930       932       934       937       931       930       932       933
       931       930       932       934       932       934       937       938
       932       934       937       939       932       934       937       940
       933       932       934       935       933       932       934       936
       933       932       934       937       934       937       940       941
       934       937       940       942       934       937       940       943
       935       934       937       938       935       934       937       939
       935       934       937       940       936       934       937       938
       936       934       937       939       936       934       937       940
       937       940       943       944       937       940       943       945
       937       940       943       946       938       937       940       941
       938       937       940       942       938       937       940       943
       939       937       940       941       939       937       940       942
       939       937       940       943       940       943       946       947
       940       943       946       948       940       943       946       949
       941       940       943       944       941       940       943       945
       941       940       943       946       942       940       943       944
       942       940       943       945       942       940       943       946
       943       946       949       950       943       946       949       951
       943       946       949       952       944       943       946       947
       944       943       946       948       944       943       946       949
       945       943       946       947       945       943       946       948
       945       943       946       949       946       949       952       953
       946       949       952       954       946       949       952       955
       947       946       949       950       947       946       949       951
       947       946       949       952       948       946       949       950
       948       946       949       951       948       946       949       952
       949       952       955       956       949       952       955       957
       949       952       955       958       950       949       952       953
       950       949       952       954       950       949       952       955
       951       949       952       953       951       949       952       954
       951       949       952       955       952       955       958       959
       952       955       958       960       952       955       958       961
       953       952       955       956       953       952       955       957
       953       952       955       958       954       952       955       956
       954       952       955       957       954       952       955       958
       955       958       961       962       955       958       961       963
       955       958       961       964       956       955       958       959
       956       955       958       960       956       955       958       961
       957       955       958       959       957       955       958       960
       957       955       958       961       958       961       964       965
       958       961       964       966       958       961       964       967
       959       958       961       962       959       958       961       963
       959       958       961       964       960       958       961       962
       960       958       961       963       960       958       961       964
       961       964       967       968       961       964       967       969
       961       964       967       970       962       961       964       965
       962       961       964       966       962       961       964       967
       963       961       964       965       963       961       964       966
       963       961       964       967       964       967       970       971
       964       967       970       972       964       967       970       973
       965       964       967       968       965       964       967       969
       965       964       967       970       966       964       967       968
       966       964       967       969       966       964       967       970
       968       967       970       971       968       967       970       972
       968       967       970       973       969       967       970       971
       969       967       970       972       969       967       970       973
       974       976       979       980       974       976       979       981
       974       976       979       982       975       974       976       977
       975       974       976       978       975       974       976       979
       976       979       982       983       976       979       982       984
       976       979       982       985       977       976       979       980
       977       976       979       981       977       976       979       982
       978       976       979       980       978       976       979       981
       978       976       979       982       979       982       985       986
       979       982       985       987       979       982       985       988
       980       979       982       983       980       979       982       984
       980       979       982       985       981       979       982       983
       981       979       982       984       981       979       982       985
       982       985       988       989       982       985       988       990
       982       985       988       991       983       982       985       986
       983       982       985       987       983       982       985       988
       984       982       985       986       984       982       985       987
       984       982       985       988       985       988       991       992
       985       988       991       993       985       988       991       994
       986       985       988       989       986       985       988       990
       986       985       988       991       987       985       988       989
       987       985       988       990       987       985       988       991
       988       991       994       995       988       991       994       996
       988       991       994       997       989       988       991       992
       989       988       991       993       989       988       991       994
       990       988       991       992       990       988       991       993
       990       988       991       994       991       994       997       998
       991       994       997       999       992       991       994       995
       992       991       994       996       992       991       994       997
       993       991       994       995       993       991       994       996
       993       991       994       997       994       997       999      1000
       994       997       999      1001       995       994       997       998
       995       994       997       999       996       994       997       998
       996       994       997       999       997       999      1001      1002
       997       999      1001      1003       997       999      1001      1004
       998       997       999      1000       998       997       999      1001
       999      1001      1004      1005       999      1001      1004      1006
       999      1001      1004      1007      1000       999      1001      1002
      1000       999      1001      1003      1000       999      1001      1004
      1001      1004      1007      1008      1001      1004      1007      1009
      1001      1004      1007      1010      1002      1001      1004      1005
      1002      1001      1004      1006      1002      1001      1004      1007
      1003      1001      1004      1005      1003      1001      1004      1006
      1003      1001      1004      1007      1004      1007      1010      1011
      1004      1007      1010      1012      1004      1007      1010      1013
      1005      1004      1007      1008      1005      1004      1007      1009
      1005      1004      1007      1010      1006      1004      1007      1008
      1006      1004      1007      1009      1006      1004      1007      1010
      1007      1010      1013      1014      1007      1010      1013      1015
      1007      1010      1013      1016      1008      1007      1010      1011
      1008      1007      1010      1012      1008      1007      1010      1013
      1009      1007      1010      1011      1009      1007      1010      1012
      1009      1007      1010      1013      1010      1013      1016      1017
      1010      1013      1016      1018      1010      1013      1016      1019
      1011      1010      1013      1014      1011      1010      1013      1015
      1011      1010      1013      1016      1012      1010      1013      1014
      1012      1010      1013      1015      1012      1010      1013      1016
      1013      1016      1019      1020      1013      1016      1019      1021
      1013      1016      1019      1022      1014      1013      1016      1017
      1014      1013      1016      1018      1014      1013      1016      1019
      1015      1013      1016      1017      1015      1013      1016      1018
      1015      1013      1016      1019      1016      1019      1022      1023
      1016      1019      1022      1024      1016      1019      1022      1025
      1017      1016      1019      1020      1017      1016      1019      1021
      1017      1016      1019      1022      1018      1016      1019      1020
      1018      1016      1019      1021      1018      1016      1019      1022
      1020      1019      1022      1023      1020      1019      1022      1024
      1020      1019      1022      1025      1021      1019      1022      1023
      1021      1019      1022      1024      1021      1019      1022      1025
      1026      1039      1042      1043      1026      1039      1042      1044
      1026      1039      1042      1049      1027      1026      1031      1032
      1027      1026      1031      1033      1027      1026      1031      1034
      1027      1026      1035      1036      1027      1026      1035      1037
      1027      1026      1035      1038      1027      1026      1039      1040
      1027      1026      1039      1041      1027      1026      1039      1042
      1028      1027      1026      1031      1028      1027      1026      1035
      1028      1027      1026      1039      1029      1027      1026      1031
      1029      1027      1026      1035      1029      1027      1026      1039
      1030      1027      1026      1031      1030      1027      1026      1035
      1030      1027      1026      1039      1031      1026      1035      1036
      1031      1026      1035      1037      1031      1026      1035      1038
      1031      1026      1039      1040      1031      1026      1039      1041
      1031      1026      1039      1042      1032      1031      1026      1035
      1032      1031      1026      1039      1033      1031      1026      1035
      1033      1031      1026      1039      1034      1031      1026      1035
      1034      1031      1026      1039      1035      1026      1039      1040
      1035      1026      1039      1041      1035      1026      1039      1042
      1036      1035      1026      1039      1037      1035      1026      1039
      1038      1035      1026      1039      1039      1042      1049      1045
      1040      1039      1042      1043      1040      1039      1042      1044
      1040      1039      1042      1049      1041      1039      1042      1043
      1041      1039      1042      1044      1041      1039      1042      1049
      1042      1049      1045      1046      1042      1049      1045      1047
      1042      1049      1045      1048      1043      1042      1049      1045
      1044      1042      1049      1045      1045      1048      1050      1051
      1045      1048      1050      1052      1045      1048      1050      1055
      1046      1045      1048      1050      1047      1045      1048      1050
      1048      1050      1055      1053      1048      1050      1055      1056
      1048      1050      1055      1057      1049      1045      1048      1050
      1050      1055      1053      1054      1050      1055      1053      1105
      1050      1055      1057      1058      1050      1055      1057      1059
      1050      1055      1057      1061      1051      1050      1055      1053
      1051      1050      1055      1056      1051      1050      1055      1057
      1052      1050      1055      1053      1052      1050      1055      1056
      1052      1050      1055      1057      1053      1055      1057      1058
      1053      1055      1057      1059      1053      1055      1057      1061
      1053      1105      1107      1108      1053      1105      1107      1109
      1053      1105      1107      1110      1054      1053      1055      1056
      1054      1053      1055      1057      1054      1053      1105      1106
      1054      1053      1105      1107      1055      1053      1105      1106
      1055      1053      1105      1107      1055      1057      1059      1060
      1055      1057      1061      1062      1055      1057      1061      1063
      1056      1055      1053      1105      1056      1055      1057      1058
      1056      1055      1057      1059      1056      1055      1057      1061
      1057      1055      1053      1105      1057      1061      1063      1064
      1057      1061      1063      1065      1058      1057      1059      1060
      1058      1057      1061      1062      1058      1057      1061      1063
      1059      1057      1061      1062      1059      1057      1061      1063
      1060      1059      1057      1061      1061      1063      1065      1066
      1061      1063      1065      1067      1061      1063      1065      1068
      1062      1061      1063      1064      1062      1061      1063      1065
      1063      1065      1068      1069      1063      1065      1068      1070
      1063      1065      1068      1071      1064      1063      1065      1066
      1064      1063      1065      1067      1064      1063      1065      1068
      1065      1068      1071      1072      1065      1068      1071      1073
      1065      1068      1071      1074      1066      1065      1068      1069
      1066      1065      1068      1070      1066      1065      1068      1071
      1067      1065      1068      1069      1067      1065      1068      1070
      1067      1065      1068      1071      1068      1071      1074      1075
      1068      1071      1074      1076      1068      1071      1074      1077
      1069      1068      1071      1072      1069      1068      1071      1073
      1069      1068      1071      1074      1070      1068      1071      1072
      1070      1068      1071      1073      1070      1068      1071      1074
      1071      1074      1077      1078      1071      1074      1077      1079
      1071      1074      1077      1080      1072      1071      1074      1075
      1072      1071      1074      1076      1072      1071      1074      1077
      1073      1071      1074      1075      1073      1071      1074      1076
      1073      1071      1074      1077      1074      1077      1080      1081
      1074      1077      1080      1082      1074      1077      1080      1083
      1075      1074      1077      1078      1075      1074      1077      1079
      1075      1074      1077      1080      1076      1074      1077      1078
      1076      1074      1077      1079      1076      1074      1077      1080
      1077      1080      1083      1084      1077      1080      1083      1085
      1077      1080      1083      1086      1078      1077      1080      1081
      1078      1077      1080      1082      1078      1077      1080      1083
      1079      1077      1080      1081      1079      1077      1080      1082
      1079      1077      1080      1083      1080      1083      1086      1087
      1080      1083      1086      1088      1080      1083      1086      1089
      1081      1080      1083      1084      1081      1080      1083      1085
      1081      1080      1083      1086      1082      1080      1083      1084
      1082      1080      1083      1085      1082      1080      1083      1086
      1083      1086      1089      1090      1083      1086      1089      1091
      1083      1086      1089      1092      1084      1083      1086      1087
      1084      1083      1086      1088      1084      1083      1086      1089
      1085      1083      1086      1087      1085      1083      1086      1088
      1085      1083      1086      1089      1086      1089      1092      1093
      1086      1089      1092      1094      1086      1089      1092      1095
      1087      1086      1089      1090      1087      1086      1089      1091
      1087      1086      1089      1092      1088      1086      1089      1090
      1088      1086      1089      1091      1088      1086      1089      1092
      1089      1092      1095      1096      1089      1092      1095      1097
      1089      1092      1095      1098      1090      1089      1092      1093
      1090      1089      1092      1094      1090      1089      1092      1095
      1091      1089      1092      1093      1091      1089      1092      1094
      1091      1089      1092      1095      1092      1095      1098      1099
      1092      1095      1098      1100      1092      1095      1098      1101
      1093      1092      1095      1096      1093      1092      1095      1097
      1093      1092      1095      1098      1094      1092      1095      1096
      1094      1092      1095      1097      1094      1092      1095      1098
      1095      1098      1101      1102      1095      1098      1101      1103
      1095      1098      1101      1104      1096      1095      1098      1099
      1096      1095      1098      1100      1096      1095      1098      1101
      1097      1095      1098      1099      1097      1095      1098      1100
      1097      1095      1098      1101      1099      1098      1101      1102
      1099      1098      1101      1103      1099      1098      1101      1104
      1100      1098      1101      1102      1100      1098      1101      1103
      1100      1098      1101      1104      1105      1107      1110      1111
      1105      1107      1110      1112      1105      1107      1110      1113
      1106      1105      1107      1108      1106      1105      1107      1109
      1106      1105      1107      1110      1107      1110      1113      1114
      1107      1110      1113      1115      1107      1110      1113      1116
      1108      1107      1110      1111      1108      1107      1110      1112
      1108      1107      1110      1113      1109      1107      1110      1111
      1109      1107      1110      1112      1109      1107      1110      1113
      1110      1113      1116      1117      1110      1113      1116      1118
      1110      1113      1116      1119      1111      1110      1113      1114
      1111      1110      1113      1115      1111      1110      1113      1116
      1112      1110      1113      1114      1112      1110      1113      1115
      1112      1110      1113      1116      1113      1116      1119      1120
      1113      1116      1119      1121      1113      1116      1119      1122
      1114      1113      1116      1117      1114      1113      1116      1118
      1114      1113      1116      1119      1115      1113      1116      1117
      1115      1113      1116      1118      1115      1113      1116      1119
      1116      1119      1122      1123      1116      1119      1122      1124
      1116      1119      1122      1125      1117      1116      1119      1120
      1117      1116      1119      1121      1117      1116      1119      1122
      1118      1116      1119      1120      1118      1116      1119      1121
      1118      1116      1119      1122      1119      1122      1125      1126
      1119      1122      1125      1127      1119      1122      1125      1128
      1120      1119      1122      1123      1120      1119      1122      1124
      1120      1119      1122      1125      1121      1119      1122      1123
      1121      1119      1122      1124      1121      1119      1122      1125
      1122      1125      1128      1129      1122      1125      1128      1130
      1123      1122      1125      1126      1123      1122      1125      1127
      1123      1122      1125      1128      1124      1122      1125      1126
      1124      1122      1125      1127      1124      1122      1125      1128
      1125      1128      1130      1131      1125      1128      1130      1132
      1126      1125      1128      1129      1126      1125      1128      1130
      1127      1125      1128      1129      1127      1125      1128      1130
      1128      1130      1132      1133      1128      1130      1132      1134
      1128      1130      1132      1135      1129      1128      1130      1131
      1129      1128      1130      1132      1130      1132      1135      1136
      1130      1132      1135      1137      1130      1132      1135      1138
      1131      1130      1132      1133      1131      1130      1132      1134
      1131      1130      1132      1135      1132      1135      1138      1139
      1132      1135      1138      1140      1132      1135      1138      1141
      1133      1132      1135      1136      1133      1132      1135      1137
      1133      1132      1135      1138      1134      1132      1135      1136
      1134      1132      1135      1137      1134      1132      1135      1138
      1135      1138      1141      1142      1135      1138      1141      1143
      1135      1138      1141      1144      1136      1135      1138      1139
      1136      1135      1138      1140      1136      1135      1138      1141
      1137      1135      1138      1139      1137      1135      1138      1140
      1137      1135      1138      1141      1138      1141      1144      1145
      1138      1141      1144      1146      1138      1141      1144      1147
      1139      1138      1141      1142      1139      1138      1141      1143
      1139      1138      1141      1144      1140      1138      1141      1142
      1140      1138      1141      1143      1140      1138      1141      1144
      1141      1144      1147      1148      1141      1144      1147      1149
      1141      1144      1147      1150      1142      1141      1144      1145
      1142      1141      1144      1146      1142      1141      1144      1147
      1143      1141      1144      1145      1143      1141      1144      1146
      1143      1141      1144      1147      1144      1147      1150      1151
      1144      1147      1150      1152      1144      1147      1150      1153
      1145      1144      1147      1148      1145      1144      1147      1149
      1145      1144      1147      1150      1146      1144      1147      1148
      1146      1144      1147      1149      1146      1144      1147      1150
      1147      1150      1153      1154      1147      1150      1153      1155
      1147      1150      1153      1156      1148      1147      1150      1151
      1148      1147      1150      1152      1148      1147      1150      1153
      1149      1147      1150      1151      1149      1147      1150      1152
      1149      1147      1150      1153      1151      1150      1153      1154
      1151      1150      1153      1155      1151      1150      1153      1156
      1152      1150      1153      1154      1152      1150      1153      1155
      1152      1150      1153      1156      1157      1161      1164      1165
      1157      1161      1164      1195      1157      1203      1200      1195
      1157      1203      1200      1201      1157      1203      1200      1202
      1158      1157      1159      1160      1158      1157      1161      1162
      1158      1157      1161      1163      1158      1157      1161      1164
      1158      1157      1203      1200      1158      1157      1203      1204
      1158      1157      1203      1205      1159      1157      1161      1162
      1159      1157      1161      1163      1159      1157      1161      1164
      1159      1157      1203      1200      1159      1157      1203      1204
      1159      1157      1203      1205      1160      1159      1157      1161
      1160      1159      1157      1203      1161      1157      1203      1200
      1161      1157      1203      1204      1161      1157      1203      1205
      1161      1164      1165      1166      1161      1164      1165      1167
      1161      1164      1195      1193      1161      1164      1195      1196
      1161      1164      1195      1200      1162      1161      1157      1203
      1162      1161      1164      1165      1162      1161      1164      1195
      1163      1161      1157      1203      1163      1161      1164      1165
      1163      1161      1164      1195      1164      1161      1157      1203
      1164      1165      1167      1168      1164      1165      1167      1169
      1164      1165      1167      1170      1164      1195      1193      1170
      1164      1195      1193      1190      1164      1195      1193      1194
      1164      1195      1196      1197      1164      1195      1196      1198
      1164      1195      1196      1199      1164      1195      1200      1201
      1164      1195      1200      1202      1164      1195      1200      1203
      1165      1164      1195      1193      1165      1164      1195      1196
      1165      1164      1195      1200      1165      1167      1170      1171
      1165      1167      1170      1172      1165      1167      1170      1193
      1166      1165      1164      1195      1166      1165      1167      1168
      1166      1165      1167      1169      1166      1165      1167      1170
      1167      1165      1164      1195      1167      1170      1172      1173
      1167      1170      1172      1174      1167      1170      1172      1182
      1167      1170      1193      1190      1167      1170      1193      1194
      1167      1170      1193      1195      1168      1167      1170      1171
      1168      1167      1170      1172      1168      1167      1170      1193
      1169      1167      1170      1171      1169      1167      1170      1172
      1169      1167      1170      1193      1170      1172      1174      1175
      1170      1172      1174      1176      1170      1172      1174      1177
      1170      1172      1182      1180      1170      1172      1182      1183
      1170      1172      1182      1187      1170      1193      1190      1187
      1170      1193      1190      1191      1170      1193      1190      1192
      1170      1193      1195      1196      1170      1193      1195      1200
      1171      1170      1172      1173      1171      1170      1172      1174
      1171      1170      1172      1182      1171      1170      1193      1190
      1171      1170      1193      1194      1171      1170      1193      1195
      1172      1170      1193      1190      1172      1170      1193      1194
      1172      1170      1193      1195      1172      1174      1177      1178
      1172      1174      1177      1179      1172      1174      1177      1180
      1172      1182      1180      1177      1172      1182      1180      1181
      1172      1182      1180      1206      1172      1182      1183      1184
      1172      1182      1183      1185      1172      1182      1183      1186
      1172      1182      1187      1188      1172      1182      1187      1189
      1172      1182      1187      1190      1173      1172      1170      1193
      1173      1172      1174      1175      1173      1172      1174      1176
      1173      1172      1174      1177      1173      1172      1182      1180
      1173      1172      1182      1183      1173      1172      1182      1187
      1174      1172      1170      1193      1174      1172      1182      1180
      1174      1172      1182      1183      1174      1172      1182      1187
      1174      1177      1180      1181      1174      1177      1180      1182
      1174      1177      1180      1206      1175      1174      1172      1182
      1175      1174      1177      1178      1175      1174      1177      1179
      1175      1174      1177      1180      1176      1174      1172      1182
      1176      1174      1177      1178      1176      1174      1177      1179
      1176      1174      1177      1180      1177      1174      1172      1182
      1177      1180      1182      1183      1177      1180      1182      1187
      1177      1180      1206      1207      1177      1180      1206      1208
      1177      1180      1206      1212      1178      1177      1180      1181
      1178      1177      1180      1182      1178      1177      1180      1206
      1179      1177      1180      1181      1179      1177      1180      1182
      1179      1177      1180      1206      1180      1182      1183      1184
      1180      1182      1183      1185      1180      1182      1183      1186
      1180      1182      1187      1188      1180      1182      1187      1189
      1180      1182      1187      1190      1180      1206      1208      1209
      1180      1206      1208      1210      1180      1206      1208      1211
      1180      1206      1212      1213      1180      1206      1212      1214
      1180      1206      1212      1215      1181      1180      1182      1183
      1181      1180      1182      1187      1181      1180      1206      1207
      1181      1180      1206      1208      1181      1180      1206      1212
      1182      1172      1170      1193      1182      1180      1206      1207
      1182      1180      1206      1208      1182      1180      1206      1212
      1182      1187      1190      1191      1182      1187      1190      1192
      1182      1187      1190      1193      1183      1182      1180      1206
      1183      1182      1187      1188      1183      1182      1187      1189
      1183      1182      1187      1190      1184      1183      1182      1187
      1185      1183      1182      1187      1186      1183      1182      1187
      1187      1182      1180      1206      1187      1190      1193      1194
      1187      1190      1193      1195      1188      1187      1190      1191
      1188      1187      1190      1192      1188      1187      1190      1193
      1189      1187      1190      1191      1189      1187      1190      1192
      1189      1187      1190      1193      1190      1193      1195      1196
      1190      1193      1195      1200      1191      1190      1193      1194
      1191      1190      1193      1195      1192      1190      1193      1194
      1192      1190      1193      1195      1193      1195      1196      1197
      1193      1195      1196      1198      1193      1195      1196      1199
      1193      1195      1200      1201      1193      1195      1200      1202
      1193      1195      1200      1203      1194      1193      1195      1196
      1194      1193      1195      1200      1195      1200      1203      1204
      1195      1200      1203      1205      1196      1195      1200      1201
      1196      1195      1200      1202      1196      1195      1200      1203
      1197      1196      1195      1200      1198      1196      1195      1200
      1199      1196      1195      1200      1201      1200      1203      1204
      1201      1200      1203      1205      1202      1200      1203      1204
      1202      1200      1203      1205      1206      1212      1215      1216
      1206      1212      1215      1217      1206      1212      1215      1218
      1207      1206      1208      1209      1207      1206      1208      1210
      1207      1206      1208      1211      1207      1206      1212      1213
      1207      1206      1212      1214      1207      1206      1212      1215
      1208      1206      1212      1213      1208      1206      1212      1214
      1208      1206      1212      1215      1209      1208      1206      1212
      1210      1208      1206      1212      1211      1208      1206      1212
      1212      1215      1218      1219      1212      1215      1218      1220
      1212      1215      1218      1221      1213      1212      1215      1216
      1213      1212      1215      1217      1213      1212      1215      1218
      1214      1212      1215      1216      1214      1212      1215      1217
      1214      1212      1215      1218      1215      1218      1221      1222
      1215      1218      1221      1223      1215      1218      1221      1227
      1216      1215      1218      1219      1216      1215      1218      1220
      1216      1215      1218      1221      1217      1215      1218      1219
      1217      1215      1218      1220      1217      1215      1218      1221
      1218      1221      1223      1224      1218      1221      1223      1225
      1218      1221      1223      1226      1218      1221      1227      1228
      1218      1221      1227      1229      1218      1221      1227      1230
      1219      1218      1221      1222      1219      1218      1221      1223
      1219      1218      1221      1227      1220      1218      1221      1222
      1220      1218      1221      1223      1220      1218      1221      1227
      1222      1221      1223      1224      1222      1221      1223      1225
      1222      1221      1223      1226      1222      1221      1227      1228
      1222      1221      1227      1229      1222      1221      1227      1230
      1223      1221      1227      1228      1223      1221      1227      1229
      1223      1221      1227      1230      1224      1223      1221      1227
      1225      1223      1221      1227      1226      1223      1221      1227
      1231      1235      1238      1239      1231      1235      1238      1269
      1231      1277      1274      1269      1231      1277      1274      1275
      1231      1277      1274      1276      1232      1231      1233      1234
      1232      1231      1235      1236      1232      1231      1235      1237
      1232      1231      1235      1238      1232      1231      1277      1274
      1232      1231      1277      1278      1232      1231      1277      1279
      1233      1231      1235      1236      1233      1231      1235      1237
      1233      1231      1235      1238      1233      1231      1277      1274
      1233      1231      1277      1278      1233      1231      1277      1279
      1234      1233      1231      1235      1234      1233      1231      1277
      1235      1231      1277      1274      1235      1231      1277      1278
      1235      1231      1277      1279      1235      1238      1239      1240
      1235      1238      1239      1241      1235      1238      1269      1267
      1235      1238      1269      1270      1235      1238      1269      1274
      1236      1235      1231      1277      1236      1235      1238      1239
      1236      1235      1238      1269      1237      1235      1231      1277
      1237      1235      1238      1239      1237      1235      1238      1269
      1238      1235      1231      1277      1238      1239      1241      1242
      1238      1239      1241      1243      1238      1239      1241      1244
      1238      1269      1267      1244      1238      1269      1267      1264
      1238      1269      1267      1268      1238      1269      1270      1271
      1238      1269      1270      1272      1238      1269      1270      1273
      1238      1269      1274      1275      1238      1269      1274      1276
      1238      1269      1274      1277      1239      1238      1269      1267
      1239      1238      1269      1270      1239      1238      1269      1274
      1239      1241      1244      1245      1239      1241      1244      1246
      1239      1241      1244      1267      1240      1239      1238      1269
      1240      1239      1241      1242      1240      1239      1241      1243
      1240      1239      1241      1244      1241      1239      1238      1269
      1241      1244      1246      1247      1241      1244      1246      1248
      1241      1244      1246      1256      1241      1244      1267      1264
      1241      1244      1267      1268      1241      1244      1267      1269
      1242      1241      1244      1245      1242      1241      1244      1246
      1242      1241      1244      1267      1243      1241      1244      1245
      1243      1241      1244      1246      1243      1241      1244      1267
      1244      1246      1248      1249      1244      1246      1248      1250
      1244      1246      1248      1251      1244      1246      1256      1254
      1244      1246      1256      1257      1244      1246      1256      1261
      1244      1267      1264      1261      1244      1267      1264      1265
      1244      1267      1264      1266      1244      1267      1269      1270
      1244      1267      1269      1274      1245      1244      1246      1247
      1245      1244      1246      1248      1245      1244      1246      1256
      1245      1244      1267      1264      1245      1244      1267      1268
      1245      1244      1267      1269      1246      1244      1267      1264
      1246      1244      1267      1268      1246      1244      1267      1269
      1246      1248      1251      1252      1246      1248      1251      1253
      1246      1248      1251      1254      1246      1256      1254      1251
      1246      1256      1254      1255      1246      1256      1254      1280
      1246      1256      1257      1258      1246      1256      1257      1259
      1246      1256      1257      1260      1246      1256      1261      1262
      1246      1256      1261      1263      1246      1256      1261      1264
      1247      1246      1244      1267      1247      1246      1248      1249
      1247      1246      1248      1250      1247      1246      1248      1251
      1247      1246      1256      1254      1247      1246      1256      1257
      1247      1246      1256      1261      1248      1246      1244      1267
      1248      1246      1256      1254      1248      1246      1256      1257
      1248      1246      1256      1261      1248      1251      1254      1255
      1248      1251      1254      1256      1248      1251      1254      1280
      1249      1248      1246      1256      1249      1248      1251      1252
      1249      1248      1251      1253      1249      1248      1251      1254
      1250      1248      1246      1256      1250      1248      1251      1252
      1250      1248      1251      1253      1250      1248      1251      1254
      1251      1248      1246      1256      1251      1254      1256      1257
      1251      1254      1256      1261      1251      1254      1280      1281
      1251      1254      1280      1282      1251      1254      1280      1286
      1252      1251      1254      1255      1252      1251      1254      1256
      1252      1251      1254      1280      1253      1251      1254      1255
      1253      1251      1254      1256      1253      1251      1254      1280
      1254      1256      1257      1258      1254      1256      1257      1259
      1254      1256      1257      1260      1254      1256      1261      1262
      1254      1256      1261      1263      1254      1256      1261      1264
      1254      1280      1282      1283      1254      1280      1282      1284
      1254      1280      1282      1285      1254      1280      1286      1287
      1254      1280      1286      1288      1254      1280      1286      1289
      1255      1254      1256      1257      1255      1254      1256      1261
      1255      1254      1280      1281      1255      1254      1280      1282
      1255      1254      1280      1286      1256      1246      1244      1267
      1256      1254      1280      1281      1256      1254      1280      1282
      1256      1254      1280      1286      1256      1261      1264      1265
      1256      1261      1264      1266      1256      1261      1264      1267
      1257      1256      1254      1280      1257      1256      1261      1262
      1257      1256      1261      1263      1257      1256      1261      1264
      1258      1257      1256      1261      1259      1257      1256      1261
      1260      1257      1256      1261      1261      1256      1254      1280
      1261      1264      1267      1268      1261      1264      1267      1269
      1262      1261      1264      1265      1262      1261      1264      1266
      1262      1261      1264      1267      1263      1261      1264      1265
      1263      1261      1264      1266      1263      1261      1264      1267
      1264      1267      1269      1270      1264      1267      1269      1274
      1265      1264      1267      1268      1265      1264      1267      1269
      1266      1264      1267      1268      1266      1264      1267      1269
      1267      1269      1270      1271      1267      1269      1270      1272
      1267      1269      1270      1273      1267      1269      1274      1275
      1267      1269      1274      1276      1267      1269      1274      1277
      1268      1267      1269      1270      1268      1267      1269      1274
      1269      1274      1277      1278      1269      1274      1277      1279
      1270      1269      1274      1275      1270      1269      1274      1276
      1270      1269      1274      1277      1271      1270      1269      1274
      1272      1270      1269      1274      1273      1270      1269      1274
      1275      1274      1277      1278      1275      1274      1277      1279
      1276      1274      1277      1278      1276      1274      1277      1279
      1280      1286      1289      1290      1280      1286      1289      1291
      1280      1286      1289      1292      1281      1280      1282      1283
      1281      1280      1282      1284      1281      1280      1282      1285
      1281      1280      1286      1287      1281      1280      1286      1288
      1281      1280      1286      1289      1282      1280      1286      1287
      1282      1280      1286      1288      1282      1280      1286      1289
      1283      1282      1280      1286      1284      1282      1280      1286
      1285      1282      1280      1286      1286      1289      1292      1293
      1286      1289      1292      1294      1286      1289      1292      1295
      1287      1286      1289      1290      1287      1286      1289      1291
      1287      1286      1289      1292      1288      1286      1289      1290
      1288      1286      1289      1291      1288      1286      1289      1292
      1289      1292      1295      1296      1289      1292      1295      1297
      1289      1292      1295      1301      1290      1289      1292      1293
      1290      1289      1292      1294      1290      1289      1292      1295
      1291      1289      1292      1293      1291      1289      1292      1294
      1291      1289      1292      1295      1292      1295      1297      1298
      1292      1295      1297      1299      1292      1295      1297      1300
      1292      1295      1301      1302      1292      1295      1301      1303
      1292      1295      1301      1304      1293      1292      1295      1296
      1293      1292      1295      1297      1293      1292      1295      1301
      1294      1292      1295      1296      1294      1292      1295      1297
      1294      1292      1295      1301      1296      1295      1297      1298
      1296      1295      1297      1299      1296      1295      1297      1300
      1296      1295      1301      1302      1296      1295      1301      1303
      1296      1295      1301      1304      1297      1295      1301      1302
      1297      1295      1301      1303      1297      1295      1301      1304
      1298      1297      1295      1301      1299      1297      1295      1301
      1300      1297      1295      1301      1305      1306      1321      1322
      1305      1306      1321      1323      1305      1306      1321      1327
      1306      1305      1309      1310      1306      1305      1309      1311
      1306      1305      1309      1312      1306      1305      1313      1314
      1306      1305      1313      1315      1306      1305      1313      1316
      1306      1305      1317      1318      1306      1305      1317      1319
      1306      1305      1317      1320      1306      1321      1327      1324
      1307      1306      1305      1309      1307      1306      1305      1313
      1307      1306      1305      1317      1307      1306      1321      1322
      1307      1306      1321      1323      1307      1306      1321      1327
      1308      1306      1305      1309      1308      1306      1305      1313
      1308      1306      1305      1317      1308      1306      1321      1322
      1308      1306      1321      1323      1308      1306      1321      1327
      1309      1305      1306      1321      1309      1305      1313      1314
      1309      1305      1313      1315      1309      1305      1313      1316
      1309      1305      1317      1318      1309      1305      1317      1319
      1309      1305      1317      1320      1310      1309      1305      1313
      1310      1309      1305      1317      1311      1309      1305      1313
      1311      1309      1305      1317      1312      1309      1305      1313
      1312      1309      1305      1317      1313      1305      1306      1321
      1313      1305      1317      1318      1313      1305      1317      1319
      1313      1305      1317      1320      1314      1313      1305      1317
      1315      1313      1305      1317      1316      1313      1305      1317
      1317      1305      1306      1321      1321      1327      1324      1325
      1321      1327      1324      1326      1321      1327      1324      1328
      1322      1321      1327      1324      1323      1321      1327      1324
      1324      1328      1329      1330      1324      1328      1329      1331
      1324      1328      1329      1332      1325      1324      1328      1329
      1326      1324      1328      1329      1327      1324      1328      1329
      1328      1329      1332      1333      1328      1329      1332      1334
      1328      1329      1332      1340      1329      1332      1334      1335
      1329      1332      1340      1341      1329      1332      1340      1342
      1329      1332      1340      1343      1330      1329      1332      1333
      1330      1329      1332      1334      1330      1329      1332      1340
      1331      1329      1332      1333      1331      1329      1332      1334
      1331      1329      1332      1340      1332      1334      1335      1336
      1332      1334      1335      1337      1332      1340      1343      1344
      1333      1332      1334      1335      1333      1332      1340      1341
      1333      1332      1340      1342      1333      1332      1340      1343
      1334      1332      1340      1341      1334      1332      1340      1342
      1334      1332      1340      1343      1334      1335      1337      1338
      1334      1335      1337      1339      1334      1335      1337      1349
      1335      1334      1332      1340      1335      1337      1349      1350
      1335      1337      1349      1351      1335      1337      1349      1352
      1336      1335      1337      1338      1336      1335      1337      1339
      1336      1335      1337      1349      1337      1349      1352      1353
      1337      1349      1352      1354      1337      1349      1352      1355
      1338      1337      1349      1350      1338      1337      1349      1351
      1338      1337      1349      1352      1339      1337      1349      1350
      1339      1337      1349      1351      1339      1337      1349      1352
      1340      1343      1344      1345      1340      1343      1344      1346
      1341      1340      1343      1344      1342      1340      1343      1344
      1343      1344      1346      1347      1343      1344      1346      1348
      1343      1344      1346      1396      1344      1346      1396      1397
      1344      1346      1396      1398      1344      1346      1396      1399
      1345      1344      1346      1347      1345      1344      1346      1348
      1345      1344      1346      1396      1346      1396      1399      1400
      1346      1396      1399      1401      1346      1396      1399      1402
      1347      1346      1396      1397      1347      1346      1396      1398
      1347      1346      1396      1399      1348      1346      1396      1397
      1348      1346      1396      1398      1348      1346      1396      1399
      1349      1352      1355      1356      1349      1352      1355      1357
      1350      1349      1352      1353      1350      1349      1352      1354
      1350      1349      1352      1355      1351      1349      1352      1353
      1351      1349      1352      1354      1351      1349      1352      1355
      1352      1355      1357      1358      1352      1355      1357      1359
      1353      1352      1355      1356      1353      1352      1355      1357
      1354      1352      1355      1356      1354      1352      1355      1357
      1355      1357      1359      1360      1355      1357      1359      1361
      1355      1357      1359      1362      1356      1355      1357      1358
      1356      1355      1357      1359      1357      1359      1362      1363
      1357      1359      1362      1364      1358      1357      1359      1360
      1358      1357      1359      1361      1358      1357      1359      1362
      1359      1362      1364      1365      1359      1362      1364      1366
      1360      1359      1362      1363      1360      1359      1362      1364
      1361      1359      1362      1363      1361      1359      1362      1364
      1362      1364      1366      1367      1362      1364      1366      1368
      1362      1364      1366      1369      1363      1362      1364      1365
      1363      1362      1364      1366      1364      1366      1369      1370
      1364      1366      1369      1371      1365      1364      1366      1367
      1365      1364      1366      1368      1365      1364      1366      1369
      1366      1369      1371      1372      1366      1369      1371      1373
      1367      1366      1369      1370      1367      1366      1369      1371
      1368      1366      1369      1370      1368      1366      1369      1371
      1369      1371      1373      1374      1369      1371      1373      1375
      1369      1371      1373      1376      1370      1369      1371      1372
      1370      1369      1371      1373      1371      1373      1376      1377
      1371      1373      1376      1378      1372      1371      1373      1374
      1372      1371      1373      1375      1372      1371      1373      1376
      1373      1376      1378      1379      1373      1376      1378      1380
      1374      1373      1376      1377      1374      1373      1376      1378
      1375      1373      1376      1377      1375      1373      1376      1378
      1376      1378      1380      1381      1376      1378      1380      1382
      1376      1378      1380      1383      1377      1376      1378      1379
      1377      1376      1378      1380      1378      1380      1383      1384
      1378      1380      1383      1385      1378      1380      1383      1386
      1379      1378      1380      1381      1379      1378      1380      1382
      1379      1378      1380      1383      1380      1383      1386      1387
      1380      1383      1386      1388      1380      1383      1386      1389
      1381      1380      1383      1384      1381      1380      1383      1385
      1381      1380      1383      1386      1382      1380      1383      1384
      1382      1380      1383      1385      1382      1380      1383      1386
      1383      1386      1389      1390      1383      1386      1389      1391
      1383      1386      1389      1392      1384      1383      1386      1387
      1384      1383      1386      1388      1384      1383      1386      1389
      1385      1383      1386      1387      1385      1383      1386      1388
      1385      1383      1386      1389      1386      1389      1392      1393
      1386      1389      1392      1394      1386      1389      1392      1395
      1387      1386      1389      1390      1387      1386      1389      1391
      1387      1386      1389      1392      1388      1386      1389      1390
      1388      1386      1389      1391      1388      1386      1389      1392
      1390      1389      1392      1393      1390      1389      1392      1394
      1390      1389      1392      1395      1391      1389      1392      1393
      1391      1389      1392      1394      1391      1389      1392      1395
      1396      1399      1402      1403      1396      1399      1402      1404
      1396      1399      1402      1405      1397      1396      1399      1400
      1397      1396      1399      1401      1397      1396      1399      1402
      1398      1396      1399      1400      1398      1396      1399      1401
      1398      1396      1399      1402      1399      1402      1405      1406
      1399      1402      1405      1407      1399      1402      1405      1408
      1400      1399      1402      1403      1400      1399      1402      1404
      1400      1399      1402      1405      1401      1399      1402      1403
      1401      1399      1402      1404      1401      1399      1402      1405
      1402      1405      1408      1409      1402      1405      1408      1410
      1402      1405      1408      1411      1403      1402      1405      1406
      1403      1402      1405      1407      1403      1402      1405      1408
      1404      1402      1405      1406      1404      1402      1405      1407
      1404      1402      1405      1408      1405      1408      1411      1412
      1405      1408      1411      1413      1405      1408      1411      1414
      1406      1405      1408      1409      1406      1405      1408      1410
      1406      1405      1408      1411      1407      1405      1408      1409
      1407      1405      1408      1410      1407      1405      1408      1411
      1408      1411      1414      1415      1408      1411      1414      1416
      1408      1411      1414      1417      1409      1408      1411      1412
      1409      1408      1411      1413      1409      1408      1411      1414
      1410      1408      1411      1412      1410      1408      1411      1413
      1410      1408      1411      1414      1411      1414      1417      1418
      1411      1414      1417      1419      1411      1414      1417      1420
      1412      1411      1414      1415      1412      1411      1414      1416
      1412      1411      1414      1417      1413      1411      1414      1415
      1413      1411      1414      1416      1413      1411      1414      1417
      1414      1417      1420      1421      1414      1417      1420      1422
      1414      1417      1420      1423      1415      1414      1417      1418
      1415      1414      1417      1419      1415      1414      1417      1420
      1416      1414      1417      1418      1416      1414      1417      1419
      1416      1414      1417      1420      1417      1420      1423      1424
      1417      1420      1423      1425      1417      1420      1423      1426
      1418      1417      1420      1421      1418      1417      1420      1422
      1418      1417      1420      1423      1419      1417      1420      1421
      1419      1417      1420      1422      1419      1417      1420      1423
      1420      1423      1426      1427      1420      1423      1426      1428
      1420      1423      1426      1429      1421      1420      1423      1424
      1421      1420      1423      1425      1421      1420      1423      1426
      1422      1420      1423      1424      1422      1420      1423      1425
      1422      1420      1423      1426      1423      1426      1429      1430
      1423      1426      1429      1431      1423      1426      1429      1432
      1424      1423      1426      1427      1424      1423      1426      1428
      1424      1423      1426      1429      1425      1423      1426      1427
      1425      1423      1426      1428      1425      1423      1426      1429
      1426      1429      1432      1433      1426      1429      1432      1434
      1426      1429      1432      1435      1427      1426      1429      1430
      1427      1426      1429      1431      1427      1426      1429      1432
      1428      1426      1429      1430      1428      1426      1429      1431
      1428      1426      1429      1432      1429      1432      1435      1436
      1429      1432      1435      1437      1429      1432      1435      1438
      1430      1429      1432      1433      1430      1429      1432      1434
      1430      1429      1432      1435      1431      1429      1432      1433
      1431      1429      1432      1434      1431      1429      1432      1435
      1432      1435      1438      1439      1432      1435      1438      1440
      1432      1435      1438      1441      1433      1432      1435      1436
      1433      1432      1435      1437      1433      1432      1435      1438
      1434      1432      1435      1436      1434      1432      1435      1437
      1434      1432      1435      1438      1435      1438      1441      1442
      1435      1438      1441      1443      1435      1438      1441      1444
      1436      1435      1438      1439      1436      1435      1438      1440
      1436      1435      1438      1441      1437      1435      1438      1439
      1437      1435      1438      1440      1437      1435      1438      1441
      1439      1438      1441      1442      1439      1438      1441      1443
      1439      1438      1441      1444      1440      1438      1441      1442
      1440      1438      1441      1443      1440      1438      1441      1444
      1445      1458      1461      1462      1445      1458      1461      1463
      1445      1458      1461      1467      1446      1445      1450      1451
      1446      1445      1450      1452      1446      1445      1450      1453
      1446      1445      1454      1455      1446      1445      1454      1456
      1446      1445      1454      1457      1446      1445      1458      1459
      1446      1445      1458      1460      1446      1445      1458      1461
      1447      1446      1445      1450      1447      1446      1445      1454
      1447      1446      1445      1458      1448      1446      1445      1450
      1448      1446      1445      1454      1448      1446      1445      1458
      1449      1446      1445      1450      1449      1446      1445      1454
      1449      1446      1445      1458      1450      1445      1454      1455
      1450      1445      1454      1456      1450      1445      1454      1457
      1450      1445      1458      1459      1450      1445      1458      1460
      1450      1445      1458      1461      1451      1450      1445      1454
      1451      1450      1445      1458      1452      1450      1445      1454
      1452      1450      1445      1458      1453      1450      1445      1454
      1453      1450      1445      1458      1454      1445      1458      1459
      1454      1445      1458      1460      1454      1445      1458      1461
      1455      1454      1445      1458      1456      1454      1445      1458
      1457      1454      1445      1458      1458      1461      1467      1464
      1459      1458      1461      1462      1459      1458      1461      1463
      1459      1458      1461      1467      1460      1458      1461      1462
      1460      1458      1461      1463      1460      1458      1461      1467
      1461      1467      1464      1465      1461      1467      1464      1466
      1461      1467      1464      1468      1462      1461      1467      1464
      1463      1461      1467      1464      1464      1468      1469      1470
      1464      1468      1469      1471      1464      1468      1469      1472
      1465      1464      1468      1469      1466      1464      1468      1469
      1467      1464      1468      1469      1468      1469      1472      1473
      1468      1469      1472      1474      1468      1469      1472      1480
      1469      1472      1474      1475      1469      1472      1480      1481
      1469      1472      1480      1482      1469      1472      1480      1483
      1470      1469      1472      1473      1470      1469      1472      1474
      1470      1469      1472      1480      1471      1469      1472      1473
      1471      1469      1472      1474      1471      1469      1472      1480
      1472      1474      1475      1476      1472      1474      1475      1477
      1472      1480      1483      1484      1473      1472      1474      1475
      1473      1472      1480      1481      1473      1472      1480      1482
      1473      1472      1480      1483      1474      1472      1480      1481
      1474      1472      1480      1482      1474      1472      1480      1483
      1474      1475      1477      1478      1474      1475      1477      1479
      1474      1475      1477      1489      1475      1474      1472      1480
      1475      1477      1489      1490      1475      1477      1489      1491
      1475      1477      1489      1492      1476      1475      1477      1478
      1476      1475      1477      1479      1476      1475      1477      1489
      1477      1489      1492      1493      1477      1489      1492      1494
      1477      1489      1492      1495      1478      1477      1489      1490
      1478      1477      1489      1491      1478      1477      1489      1492
      1479      1477      1489      1490      1479      1477      1489      1491
      1479      1477      1489      1492      1480      1483      1484      1485
      1480      1483      1484      1486      1481      1480      1483      1484
      1482      1480      1483      1484      1483      1484      1486      1487
      1483      1484      1486      1488      1483      1484      1486      1534
      1484      1486      1534      1535      1484      1486      1534      1536
      1484      1486      1534      1537      1485      1484      1486      1487
      1485      1484      1486      1488      1485      1484      1486      1534
      1486      1534      1537      1538      1486      1534      1537      1539
      1486      1534      1537      1540      1487      1486      1534      1535
      1487      1486      1534      1536      1487      1486      1534      1537
      1488      1486      1534      1535      1488      1486      1534      1536
      1488      1486      1534      1537      1489      1492      1495      1496
      1489      1492      1495      1497      1489      1492      1495      1498
      1490      1489      1492      1493      1490      1489      1492      1494
      1490      1489      1492      1495      1491      1489      1492      1493
      1491      1489      1492      1494      1491      1489      1492      1495
      1492      1495      1498      1499      1492      1495      1498      1500
      1492      1495      1498      1501      1493      1492      1495      1496
      1493      1492      1495      1497      1493      1492      1495      1498
      1494      1492      1495      1496      1494      1492      1495      1497
      1494      1492      1495      1498      1495      1498      1501      1502
      1495      1498      1501      1503      1495      1498      1501      1504
      1496      1495      1498      1499      1496      1495      1498      1500
      1496      1495      1498      1501      1497      1495      1498      1499
      1497      1495      1498      1500      1497      1495      1498      1501
      1498      1501      1504      1505      1498      1501      1504      1506
      1498      1501      1504      1507      1499      1498      1501      1502
      1499      1498      1501      1503      1499      1498      1501      1504
      1500      1498      1501      1502      1500      1498      1501      1503
      1500      1498      1501      1504      1501      1504      1507      1508
      1501      1504      1507      1509      1502      1501      1504      1505
      1502      1501      1504      1506      1502      1501      1504      1507
      1503      1501      1504      1505      1503      1501      1504      1506
      1503      1501      1504      1507      1504      1507      1509      1510
      1504      1507      1509      1511      1505      1504      1507      1508
      1505      1504      1507      1509      1506      1504      1507      1508
      1506      1504      1507      1509      1507      1509      1511      1512
      1507      1509      1511      1513      1507      1509      1511      1514
      1508      1507      1509      1510      1508      1507      1509      1511
      1509      1511      1514      1515      1509      1511      1514      1516
      1510      1509      1511      1512      1510      1509      1511      1513
      1510      1509      1511      1514      1511      1514      1516      1517
      1511      1514      1516      1518      1512      1511      1514      1515
      1512      1511      1514      1516      1513      1511      1514      1515
      1513      1511      1514      1516      1514      1516      1518      1519
      1514      1516      1518      1520      1514      1516      1518      1521
      1515      1514      1516      1517      1515      1514      1516      1518
      1516      1518      1521      1522      1516      1518      1521      1523
      1516      1518      1521      1524      1517      1516      1518      1519
      1517      1516      1518      1520      1517      1516      1518      1521
      1518      1521      1524      1525      1518      1521      1524      1526
      1518      1521      1524      1527      1519      1518      1521      1522
      1519      1518      1521      1523      1519      1518      1521      1524
      1520      1518      1521      1522      1520      1518      1521      1523
      1520      1518      1521      1524      1521      1524      1527      1528
      1521      1524      1527      1529      1521      1524      1527      1530
      1522      1521      1524      1525      1522      1521      1524      1526
      1522      1521      1524      1527      1523      1521      1524      1525
      1523      1521      1524      1526      1523      1521      1524      1527
      1524      1527      1530      1531      1524      1527      1530      1532
      1524      1527      1530      1533      1525      1524      1527      1528
      1525      1524      1527      1529      1525      1524      1527      1530
      1526      1524      1527      1528      1526      1524      1527      1529
      1526      1524      1527      1530      1528      1527      1530      1531
      1528      1527      1530      1532      1528      1527      1530      1533
      1529      1527      1530      1531      1529      1527      1530      1532
      1529      1527      1530      1533      1534      1537      1540      1541
      1534      1537      1540      1542      1534      1537      1540      1543
      1535      1534      1537      1538      1535      1534      1537      1539
      1535      1534      1537      1540      1536      1534      1537      1538
      1536      1534      1537      1539      1536      1534      1537      1540
      1537      1540      1543      1544      1537      1540      1543      1545
      1537      1540      1543      1546      1538      1537      1540      1541
      1538      1537      1540      1542      1538      1537      1540      1543
      1539      1537      1540      1541      1539      1537      1540      1542
      1539      1537      1540      1543      1540      1543      1546      1547
      1540      1543      1546      1548      1540      1543      1546      1549
      1541      1540      1543      1544      1541      1540      1543      1545
      1541      1540      1543      1546      1542      1540      1543      1544
      1542      1540      1543      1545      1542      1540      1543      1546
      1543      1546      1549      1550      1543      1546      1549      1551
      1543      1546      1549      1552      1544      1543      1546      1547
      1544      1543      1546      1548      1544      1543      1546      1549
      1545      1543      1546      1547      1545      1543      1546      1548
      1545      1543      1546      1549      1546      1549      1552      1553
      1546      1549      1552      1554      1546      1549      1552      1555
      1547      1546      1549      1550      1547      1546      1549      1551
      1547      1546      1549      1552      1548      1546      1549      1550
      1548      1546      1549      1551      1548      1546      1549      1552
      1549      1552      1555      1556      1549      1552      1555      1557
      1549      1552      1555      1558      1550      1549      1552      1553
      1550      1549      1552      1554      1550      1549      1552      1555
      1551      1549      1552      1553      1551      1549      1552      1554
      1551      1549      1552      1555      1552      1555      1558      1559
      1552      1555      1558      1560      1552      1555      1558      1561
      1553      1552      1555      1556      1553      1552      1555      1557
      1553      1552      1555      1558      1554      1552      1555      1556
      1554      1552      1555      1557      1554      1552      1555      1558
      1555      1558      1561      1562      1555      1558      1561      1563
      1555      1558      1561      1564      1556      1555      1558      1559
      1556      1555      1558      1560      1556      1555      1558      1561
      1557      1555      1558      1559      1557      1555      1558      1560
      1557      1555      1558      1561      1558      1561      1564      1565
      1558      1561      1564      1566      1558      1561      1564      1567
      1559      1558      1561      1562      1559      1558      1561      1563
      1559      1558      1561      1564      1560      1558      1561      1562
      1560      1558      1561      1563      1560      1558      1561      1564
      1561      1564      1567      1568      1561      1564      1567      1569
      1561      1564      1567      1570      1562      1561      1564      1565
      1562      1561      1564      1566      1562      1561      1564      1567
      1563      1561      1564      1565      1563      1561      1564      1566
      1563      1561      1564      1567      1564      1567      1570      1571
      1564      1567      1570      1572      1564      1567      1570      1573
      1565      1564      1567      1568      1565      1564      1567      1569
      1565      1564      1567      1570      1566      1564      1567      1568
      1566      1564      1567      1569      1566      1564      1567      1570
      1567      1570      1573      1574      1567      1570      1573      1575
      1567      1570      1573      1576      1568      1567      1570      1571
      1568      1567      1570      1572      1568      1567      1570      1573
      1569      1567      1570      1571      1569      1567      1570      1572
      1569      1567      1570      1573      1570      1573      1576      1577
      1570      1573      1576      1578      1570      1573      1576      1579
      1571      1570      1573      1574      1571      1570      1573      1575
      1571      1570      1573      1576      1572      1570      1573      1574
      1572      1570      1573      1575      1572      1570      1573      1576
      1573      1576      1579      1580      1573      1576      1579      1581
      1573      1576      1579      1582      1574      1573      1576      1577
      1574      1573      1576      1578      1574      1573      1576      1579
      1575      1573      1576      1577      1575      1573      1576      1578
      1575      1573      1576      1579      1577      1576      1579      1580
      1577      1576      1579      1581      1577      1576      1579      1582
      1578      1576      1579      1580      1578      1576      1579      1581
      1578      1576      1579      1582      1583      1584      1599      1600
      1583      1584      1599      1601      1583      1584      1599      1605
      1584      1583      1587      1588      1584      1583      1587      1589
      1584      1583      1587      1590      1584      1583      1591      1592
      1584      1583      1591      1593      1584      1583      1591      1594
      1584      1583      1595      1596      1584      1583      1595      1597
      1584      1583      1595      1598      1584      1599      1605      1602
      1585      1584      1583      1587      1585      1584      1583      1591
      1585      1584      1583      1595      1585      1584      1599      1600
      1585      1584      1599      1601      1585      1584      1599      1605
      1586      1584      1583      1587      1586      1584      1583      1591
      1586      1584      1583      1595      1586      1584      1599      1600
      1586      1584      1599      1601      1586      1584      1599      1605
      1587      1583      1584      1599      1587      1583      1591      1592
      1587      1583      1591      1593      1587      1583      1591      1594
      1587      1583      1595      1596      1587      1583      1595      1597
      1587      1583      1595      1598      1588      1587      1583      1591
      1588      1587      1583      1595      1589      1587      1583      1591
      1589      1587      1583      1595      1590      1587      1583      1591
      1590      1587      1583      1595      1591      1583      1584      1599
      1591      1583      1595      1596      1591      1583      1595      1597
      1591      1583      1595      1598      1592      1591      1583      1595
      1593      1591      1583      1595      1594      1591      1583      1595
      1595      1583      1584      1599      1599      1605      1602      1603
      1599      1605      1602      1604      1599      1605      1602      1606
      1600      1599      1605      1602      1601      1599      1605      1602
      1602      1606      1607      1608      1602      1606      1607      1609
      1602      1606      1607      1610      1603      1602      1606      1607
      1604      1602      1606      1607      1605      1602      1606      1607
      1606      1607      1610      1611      1606      1607      1610      1612
      1606      1607      1610      1618      1607      1610      1612      1613
      1607      1610      1618      1619      1607      1610      1618      1620
      1607      1610      1618      1621      1608      1607      1610      1611
      1608      1607      1610      1612      1608      1607      1610      1618
      1609      1607      1610      1611      1609      1607      1610      1612
      1609      1607      1610      1618      1610      1612      1613      1614
      1610      1612      1613      1615      1610      1618      1621      1622
      1611      1610      1612      1613      1611      1610      1618      1619
      1611      1610      1618      1620      1611      1610      1618      1621
      1612      1610      1618      1619      1612      1610      1618      1620
      1612      1610      1618      1621      1612      1613      1615      1616
      1612      1613      1615      1617      1612      1613      1615      1627
      1613      1612      1610      1618      1613      1615      1627      1628
      1613      1615      1627      1629      1613      1615      1627      1630
      1614      1613      1615      1616      1614      1613      1615      1617
      1614      1613      1615      1627      1615      1627      1630      1631
      1615      1627      1630      1632      1615      1627      1630      1633
      1616      1615      1627      1628      1616      1615      1627      1629
      1616      1615      1627      1630      1617      1615      1627      1628
      1617      1615      1627      1629      1617      1615      1627      1630
      1618      1621      1622      1623      1618      1621      1622      1624
      1619      1618      1621      1622      1620      1618      1621      1622
      1621      1622      1624      1625      1621      1622      1624      1626
      1621      1622      1624      1674      1622      1624      1674      1675
      1622      1624      1674      1676      1622      1624      1674      1677
      1623      1622      1624      1625      1623      1622      1624      1626
      1623      1622      1624      1674      1624      1674      1677      1678
      1624      1674      1677      1679      1624      1674      1677      1680
      1625      1624      1674      1675      1625      1624      1674      1676
      1625      1624      1674      1677      1626      1624      1674      1675
      1626      1624      1674      1676      1626      1624      1674      1677
      1627      1630      1633      1634      1627      1630      1633      1635
      1627      1630      1633      1636      1628      1627      1630      1631
      1628      1627      1630      1632      1628      1627      1630      1633
      1629      1627      1630      1631      1629      1627      1630      1632
      1629      1627      1630      1633      1630      1633      1636      1637
      1630      1633      1636      1638      1630      1633      1636      1639
      1631      1630      1633      1634      1631      1630      1633      1635
      1631      1630      1633      1636      1632      1630      1633      1634
      1632      1630      1633      1635      1632      1630      1633      1636
      1633      1636      1639      1640      1633      1636      1639      1641
      1633      1636      1639      1642      1634      1633      1636      1637
      1634      1633      1636      1638      1634      1633      1636      1639
      1635      1633      1636      1637      1635      1633      1636      1638
      1635      1633      1636      1639      1636      1639      1642      1643
      1636      1639      1642      1644      1636      1639      1642      1645
      1637      1636      1639      1640      1637      1636      1639      1641
      1637      1636      1639      1642      1638      1636      1639      1640
      1638      1636      1639      1641      1638      1636      1639      1642
      1639      1642      1645      1646      1639      1642      1645      1647
      1640      1639      1642      1643      1640      1639      1642      1644
      1640      1639      1642      1645      1641      1639      1642      1643
      1641      1639      1642      1644      1641      1639      1642      1645
      1642      1645      1647      1648      1642      1645      1647      1649
      1643      1642      1645      1646      1643      1642      1645      1647
      1644      1642      1645      1646      1644      1642      1645      1647
      1645      1647      1649      1650      1645      1647      1649      1651
      1645      1647      1649      1652      1646      1645      1647      1648
      1646      1645      1647      1649      1647      1649      1652      1653
      1647      1649      1652      1654      1647      1649      1652      1655
      1648      1647      1649      1650      1648      1647      1649      1651
      1648      1647      1649      1652      1649      1652      1655      1656
      1649      1652      1655      1657      1649      1652      1655      1658
      1650      1649      1652      1653      1650      1649      1652      1654
      1650      1649      1652      1655      1651      1649      1652      1653
      1651      1649      1652      1654      1651      1649      1652      1655
      1652      1655      1658      1659      1652      1655      1658      1660
      1652      1655      1658      1661      1653      1652      1655      1656
      1653      1652      1655      1657      1653      1652      1655      1658
      1654      1652      1655      1656      1654      1652      1655      1657
      1654      1652      1655      1658      1655      1658      1661      1662
      1655      1658      1661      1663      1655      1658      1661      1664
      1656      1655      1658      1659      1656      1655      1658      1660
      1656      1655      1658      1661      1657      1655      1658      1659
      1657      1655      1658      1660      1657      1655      1658      1661
      1658      1661      1664      1665      1658      1661      1664      1666
      1658      1661      1664      1667      1659      1658      1661      1662
      1659      1658      1661      1663      1659      1658      1661      1664
      1660      1658      1661      1662      1660      1658      1661      1663
      1660      1658      1661      1664      1661      1664      1667      1668
      1661      1664      1667      1669      1661      1664      1667      1670
      1662      1661      1664      1665      1662      1661      1664      1666
      1662      1661      1664      1667      1663      1661      1664      1665
      1663      1661      1664      1666      1663      1661      1664      1667
      1664      1667      1670      1671      1664      1667      1670      1672
      1664      1667      1670      1673      1665      1664      1667      1668
      1665      1664      1667      1669      1665      1664      1667      1670
      1666      1664      1667      1668      1666      1664      1667      1669
      1666      1664      1667      1670      1668      1667      1670      1671
      1668      1667      1670      1672      1668      1667      1670      1673
      1669      1667      1670      1671      1669      1667      1670      1672
      1669      1667      1670      1673      1674      1677      1680      1681
      1674      1677      1680      1682      1674      1677      1680      1683
      1675      1674      1677      1678      1675      1674      1677      1679
      1675      1674      1677      1680      1676      1674      1677      1678
      1676      1674      1677      1679      1676      1674      1677      1680
      1677      1680      1683      1684      1677      1680      1683      1685
      1677      1680      1683      1686      1678      1677      1680      1681
      1678      1677      1680      1682      1678      1677      1680      1683
      1679      1677      1680      1681      1679      1677      1680      1682
      1679      1677      1680      1683      1680      1683      1686      1687
      1680      1683      1686      1688      1680      1683      1686      1689
      1681      1680      1683      1684      1681      1680      1683      1685
      1681      1680      1683      1686      1682      1680      1683      1684
      1682      1680      1683      1685      1682      1680      1683      1686
      1683      1686      1689      1690      1683      1686      1689      1691
      1683      1686      1689      1692      1684      1683      1686      1687
      1684      1683      1686      1688      1684      1683      1686      1689
      1685      1683      1686      1687      1685      1683      1686      1688
      1685      1683      1686      1689      1686      1689      1692      1693
      1686      1689      1692      1694      1686      1689      1692      1695
      1687      1686      1689      1690      1687      1686      1689      1691
      1687      1686      1689      1692      1688      1686      1689      1690
      1688      1686      1689      1691      1688      1686      1689      1692
      1689      1692      1695      1696      1689      1692      1695      1697
      1689      1692      1695      1698      1690      1689      1692      1693
      1690      1689      1692      1694      1690      1689      1692      1695
      1691      1689      1692      1693      1691      1689      1692      1694
      1691      1689      1692      1695      1692      1695      1698      1699
      1692      1695      1698      1700      1692      1695      1698      1701
      1693      1692      1695      1696      1693      1692      1695      1697
      1693      1692      1695      1698      1694      1692      1695      1696
      1694      1692      1695      1697      1694      1692      1695      1698
      1695      1698      1701      1702      1695      1698      1701      1703
      1695      1698      1701      1704      1696      1695      1698      1699
      1696      1695      1698      1700      1696      1695      1698      1701
      1697      1695      1698      1699      1697      1695      1698      1700
      1697      1695      1698      1701      1698      1701      1704      1705
      1698      1701      1704      1706      1698      1701      1704      1707
      1699      1698      1701      1702      1699      1698      1701      1703
      1699      1698      1701      1704      1700      1698      1701      1702
      1700      1698      1701      1703      1700      1698      1701      1704
      1701      1704      1707      1708      1701      1704      1707      1709
      1701      1704      1707      1710      1702      1701      1704      1705
      1702      1701      1704      1706      1702      1701      1704      1707
      1703      1701      1704      1705      1703      1701      1704      1706
      1703      1701      1704      1707      1704      1707      1710      1711
      1704      1707      1710      1712      1704      1707      1710      1713
      1705      1704      1707      1708      1705      1704      1707      1709
      1705      1704      1707      1710      1706      1704      1707      1708
      1706      1704      1707      1709      1706      1704      1707      1710
      1707      1710      1713      1714      1707      1710      1713      1715
      1707      1710      1713      1716      1708      1707      1710      1711
      1708      1707      1710      1712      1708      1707      1710      1713
      1709      1707      1710      1711      1709      1707      1710      1712
      1709      1707      1710      1713      1711      1710      1713      1714
      1711      1710      1713      1715      1711      1710      1713      1716
      1712      1710      1713      1714      1712      1710      1713      1715
      1712      1710      1713      1716      1717      1721      1724      1725
      1717      1721      1724      1726      1717      1721      1724      1730
      1718      1717      1721      1722      1718      1717      1721      1723
      1718      1717      1721      1724      1719      1717      1721      1722
      1719      1717      1721      1723      1719      1717      1721      1724
      1720      1717      1721      1722      1720      1717      1721      1723
      1720      1717      1721      1724      1721      1724      1730      1727
      1722      1721      1724      1725      1722      1721      1724      1726
      1722      1721      1724      1730      1723      1721      1724      1725
      1723      1721      1724      1726      1723      1721      1724      1730
      1724      1730      1727      1728      1724      1730      1727      1729
      1724      1730      1727      1731      1725      1724      1730      1727
      1726      1724      1730      1727      1727      1731      1732      1733
      1727      1731      1732      1734      1727      1731      1732      1735
      1728      1727      1731      1732      1729      1727      1731      1732
      1730      1727      1731      1732      1731      1732      1735      1736
      1731      1732      1735      1737      1731      1732      1735      1743
      1732      1735      1737      1738      1732      1735      1743      1744
      1732      1735      1743      1745      1732      1735      1743      1746
      1733      1732      1735      1736      1733      1732      1735      1737
      1733      1732      1735      1743      1734      1732      1735      1736
      1734      1732      1735      1737      1734      1732      1735      1743
      1735      1737      1738      1739      1735      1737      1738      1740
      1735      1743      1746      1747      1736      1735      1737      1738
      1736      1735      1743      1744      1736      1735      1743      1745
      1736      1735      1743      1746      1737      1735      1743      1744
      1737      1735      1743      1745      1737      1735      1743      1746
      1737      1738      1740      1741      1737      1738      1740      1742
      1737      1738      1740      1752      1738      1737      1735      1743
      1738      1740      1752      1753      1738      1740      1752      1754
      1738      1740      1752      1755      1739      1738      1740      1741
      1739      1738      1740      1742      1739      1738      1740      1752
      1740      1752      1755      1756      1740      1752      1755      1757
      1740      1752      1755      1758      1741      1740      1752      1753
      1741      1740      1752      1754      1741      1740      1752      1755
      1742      1740      1752      1753      1742      1740      1752      1754
      1742      1740      1752      1755      1743      1746      1747      1748
      1743      1746      1747      1749      1744      1743      1746      1747
      1745      1743      1746      1747      1746      1747      1749      1750
      1746      1747      1749      1751      1746      1747      1749      1799
      1747      1749      1799      1800      1747      1749      1799      1801
      1747      1749      1799      1802      1748      1747      1749      1750
      1748      1747      1749      1751      1748      1747      1749      1799
      1749      1799      1802      1803      1749      1799      1802      1804
      1749      1799      1802      1805      1750      1749      1799      1800
      1750      1749      1799      1801      1750      1749      1799      1802
      1751      1749      1799      1800      1751      1749      1799      1801
      1751      1749      1799      1802      1752      1755      1758      1759
      1752      1755      1758      1760      1752      1755      1758      1761
      1753      1752      1755      1756      1753      1752      1755      1757
      1753      1752      1755      1758      1754      1752      1755      1756
      1754      1752      1755      1757      1754      1752      1755      1758
      1755      1758      1761      1762      1755      1758      1761      1763
      1755      1758      1761      1764      1756      1755      1758      1759
      1756      1755      1758      1760      1756      1755      1758      1761
      1757      1755      1758      1759      1757      1755      1758      1760
      1757      1755      1758      1761      1758      1761      1764      1765
      1758      1761      1764      1766      1758      1761      1764      1767
      1759      1758      1761      1762      1759      1758      1761      1763
      1759      1758      1761      1764      1760      1758      1761      1762
      1760      1758      1761      1763      1760      1758      1761      1764
      1761      1764      1767      1768      1761      1764      1767      1769
      1761      1764      1767      1770      1762      1761      1764      1765
      1762      1761      1764      1766      1762      1761      1764      1767
      1763      1761      1764      1765      1763      1761      1764      1766
      1763      1761      1764      1767      1764      1767      1770      1771
      1764      1767      1770      1772      1765      1764      1767      1768
      1765      1764      1767      1769      1765      1764      1767      1770
      1766      1764      1767      1768      1766      1764      1767      1769
      1766      1764      1767      1770      1767      1770      1772      1773
      1767      1770      1772      1774      1768      1767      1770      1771
      1768      1767      1770      1772      1769      1767      1770      1771
      1769      1767      1770      1772      1770      1772      1774      1775
      1770      1772      1774      1776      1770      1772      1774      1777
      1771      1770      1772      1773      1771      1770      1772      1774
      1772      1774      1777      1778      1772      1774      1777      1779
      1772      1774      1777      1780      1773      1772      1774      1775
      1773      1772      1774      1776      1773      1772      1774      1777
      1774      1777      1780      1781      1774      1777      1780      1782
      1774      1777      1780      1783      1775      1774      1777      1778
      1775      1774      1777      1779      1775      1774      1777      1780
      1776      1774      1777      1778      1776      1774      1777      1779
      1776      1774      1777      1780      1777      1780      1783      1784
      1777      1780      1783      1785      1777      1780      1783      1786
      1778      1777      1780      1781      1778      1777      1780      1782
      1778      1777      1780      1783      1779      1777      1780      1781
      1779      1777      1780      1782      1779      1777      1780      1783
      1780      1783      1786      1787      1780      1783      1786      1788
      1780      1783      1786      1789      1781      1780      1783      1784
      1781      1780      1783      1785      1781      1780      1783      1786
      1782      1780      1783      1784      1782      1780      1783      1785
      1782      1780      1783      1786      1783      1786      1789      1790
      1783      1786      1789      1791      1783      1786      1789      1792
      1784      1783      1786      1787      1784      1783      1786      1788
      1784      1783      1786      1789      1785      1783      1786      1787
      1785      1783      1786      1788      1785      1783      1786      1789
      1786      1789      1792      1793      1786      1789      1792      1794
      1786      1789      1792      1795      1787      1786      1789      1790
      1787      1786      1789      1791      1787      1786      1789      1792
      1788      1786      1789      1790      1788      1786      1789      1791
      1788      1786      1789      1792      1789      1792      1795      1796
      1789      1792      1795      1797      1789      1792      1795      1798
      1790      1789      1792      1793      1790      1789      1792      1794
      1790      1789      1792      1795      1791      1789      1792      1793
      1791      1789      1792      1794      1791      1789      1792      1795
      1793      1792      1795      1796      1793      1792      1795      1797
      1793      1792      1795      1798      1794      1792      1795      1796
      1794      1792      1795      1797      1794      1792      1795      1798
      1799      1802      1805      1806      1799      1802      1805      1807
      1799      1802      1805      1808      1800      1799      1802      1803
      1800      1799      1802      1804      1800      1799      1802      1805
      1801      1799      1802      1803      1801      1799      1802      1804
      1801      1799      1802      1805      1802      1805      1808      1809
      1802      1805      1808      1810      1802      1805      1808      1811
      1803      1802      1805      1806      1803      1802      1805      1807
      1803      1802      1805      1808      1804      1802      1805      1806
      1804      1802      1805      1807      1804      1802      1805      1808
      1805      1808      1811      1812      1805      1808      1811      1813
      1805      1808      1811      1814      1806      1805      1808      1809
      1806      1805      1808      1810      1806      1805      1808      1811
      1807      1805      1808      1809      1807      1805      1808      1810
      1807      1805      1808      1811      1808      1811      1814      1815
      1808      1811      1814      1816      1808      1811      1814      1817
      1809      1808      1811      1812      1809      1808      1811      1813
      1809      1808      1811      1814      1810      1808      1811      1812
      1810      1808      1811      1813      1810      1808      1811      1814
      1811      1814      1817      1818      1811      1814      1817      1819
      1811      1814      1817      1820      1812      1811      1814      1815
      1812      1811      1814      1816      1812      1811      1814      1817
      1813      1811      1814      1815      1813      1811      1814      1816
      1813      1811      1814      1817      1814      1817      1820      1821
      1814      1817      1820      1822      1814      1817      1820      1823
      1815      1814      1817      1818      1815      1814      1817      1819
      1815      1814      1817      1820      1816      1814      1817      1818
      1816      1814      1817      1819      1816      1814      1817      1820
      1817      1820      1823      1824      1817      1820      1823      1825
      1817      1820      1823      1826      1818      1817      1820      1821
      1818      1817      1820      1822      1818      1817      1820      1823
      1819      1817      1820      1821      1819      1817      1820      1822
      1819      1817      1820      1823      1820      1823      1826      1827
      1820      1823      1826      1828      1820      1823      1826      1829
      1821      1820      1823      1824      1821      1820      1823      1825
      1821      1820      1823      1826      1822      1820      1823      1824
      1822      1820      1823      1825      1822      1820      1823      1826
      1823      1826      1829      1830      1823      1826      1829      1831
      1823      1826      1829      1832      1824      1823      1826      1827
      1824      1823      1826      1828      1824      1823      1826      1829
      1825      1823      1826      1827      1825      1823      1826      1828
      1825      1823      1826      1829      1826      1829      1832      1833
      1826      1829      1832      1834      1826      1829      1832      1835
      1827      1826      1829      1830      1827      1826      1829      1831
      1827      1826      1829      1832      1828      1826      1829      1830
      1828      1826      1829      1831      1828      1826      1829      1832
      1829      1832      1835      1836      1829      1832      1835      1837
      1829      1832      1835      1838      1830      1829      1832      1833
      1830      1829      1832      1834      1830      1829      1832      1835
      1831      1829      1832      1833      1831      1829      1832      1834
      1831      1829      1832      1835      1832      1835      1838      1839
      1832      1835      1838      1840      1832      1835      1838      1841
      1833      1832      1835      1836      1833      1832      1835      1837
      1833      1832      1835      1838      1834      1832      1835      1836
      1834      1832      1835      1837      1834      1832      1835      1838
      1835      1838      1841      1842      1835      1838      1841      1843
      1835      1838      1841      1844      1836      1835      1838      1839
      1836      1835      1838      1840      1836      1835      1838      1841
      1837      1835      1838      1839      1837      1835      1838      1840
      1837      1835      1838      1841      1838      1841      1844      1845
      1838      1841      1844      1846      1838      1841      1844      1847
      1839      1838      1841      1842      1839      1838      1841      1843
      1839      1838      1841      1844      1840      1838      1841      1842
      1840      1838      1841      1843      1840      1838      1841      1844
      1842      1841      1844      1845      1842      1841      1844      1846
      1842      1841      1844      1847      1843      1841      1844      1845
      1843      1841      1844      1846      1843      1841      1844      1847
      1848      1852      1855      1856      1848      1852      1855      1857
      1848      1852      1855      1861      1849      1848      1852      1853
      1849      1848      1852      1854      1849      1848      1852      1855
      1850      1848      1852      1853      1850      1848      1852      1854
      1850      1848      1852      1855      1851      1848      1852      1853
      1851      1848      1852      1854      1851      1848      1852      1855
      1852      1855      1861      1858      1853      1852      1855      1856
      1853      1852      1855      1857      1853      1852      1855      1861
      1854      1852      1855      1856      1854      1852      1855      1857
      1854      1852      1855      1861      1855      1861      1858      1859
      1855      1861      1858      1860      1855      1861      1858      1862
      1856      1855      1861      1858      1857      1855      1861      1858
      1858      1862      1863      1864      1858      1862      1863      1865
      1858      1862      1863      1866      1859      1858      1862      1863
      1860      1858      1862      1863      1861      1858      1862      1863
      1862      1863      1866      1867      1862      1863      1866      1868
      1862      1863      1866      1874      1863      1866      1868      1869
      1863      1866      1874      1875      1863      1866      1874      1876
      1863      1866      1874      1877      1864      1863      1866      1867
      1864      1863      1866      1868      1864      1863      1866      1874
      1865      1863      1866      1867      1865      1863      1866      1868
      1865      1863      1866      1874      1866      1868      1869      1870
      1866      1868      1869      1871      1866      1874      1877      1878
      1867      1866      1868      1869      1867      1866      1874      1875
      1867      1866      1874      1876      1867      1866      1874      1877
      1868      1866      1874      1875      1868      1866      1874      1876
      1868      1866      1874      1877      1868      1869      1871      1872
      1868      1869      1871      1873      1868      1869      1871      1883
      1869      1868      1866      1874      1869      1871      1883      1884
      1869      1871      1883      1885      1869      1871      1883      1886
      1870      1869      1871      1872      1870      1869      1871      1873
      1870      1869      1871      1883      1871      1883      1886      1887
      1871      1883      1886      1888      1871      1883      1886      1889
      1872      1871      1883      1884      1872      1871      1883      1885
      1872      1871      1883      1886      1873      1871      1883      1884
      1873      1871      1883      1885      1873      1871      1883      1886
      1874      1877      1878      1879      1874      1877      1878      1880
      1875      1874      1877      1878      1876      1874      1877      1878
      1877      1878      1880      1881      1877      1878      1880      1882
      1877      1878      1880      1930      1878      1880      1930      1931
      1878      1880      1930      1932      1878      1880      1930      1933
      1879      1878      1880      1881      1879      1878      1880      1882
      1879      1878      1880      1930      1880      1930      1933      1934
      1880      1930      1933      1935      1880      1930      1933      1936
      1881      1880      1930      1931      1881      1880      1930      1932
      1881      1880      1930      1933      1882      1880      1930      1931
      1882      1880      1930      1932      1882      1880      1930      1933
      1883      1886      1889      1890      1883      1886      1889      1891
      1884      1883      1886      1887      1884      1883      1886      1888
      1884      1883      1886      1889      1885      1883      1886      1887
      1885      1883      1886      1888      1885      1883      1886      1889
      1886      1889      1891      1892      1886      1889      1891      1893
      1887      1886      1889      1890      1887      1886      1889      1891
      1888      1886      1889      1890      1888      1886      1889      1891
      1889      1891      1893      1894      1889      1891      1893      1895
      1889      1891      1893      1896      1890      1889      1891      1892
      1890      1889      1891      1893      1891      1893      1896      1897
      1891      1893      1896      1898      1892      1891      1893      1894
      1892      1891      1893      1895      1892      1891      1893      1896
      1893      1896      1898      1899      1893      1896      1898      1900
      1894      1893      1896      1897      1894      1893      1896      1898
      1895      1893      1896      1897      1895      1893      1896      1898
      1896      1898      1900      1901      1896      1898      1900      1902
      1896      1898      1900      1903      1897      1896      1898      1899
      1897      1896      1898      1900      1898      1900      1903      1904
      1898      1900      1903      1905      1899      1898      1900      1901
      1899      1898      1900      1902      1899      1898      1900      1903
      1900      1903      1905      1906      1900      1903      1905      1907
      1901      1900      1903      1904      1901      1900      1903      1905
      1902      1900      1903      1904      1902      1900      1903      1905
      1903      1905      1907      1908      1903      1905      1907      1909
      1903      1905      1907      1910      1904      1903      1905      1906
      1904      1903      1905      1907      1905      1907      1910      1911
      1905      1907      1910      1912      1906      1905      1907      1908
      1906      1905      1907      1909      1906      1905      1907      1910
      1907      1910      1912      1913      1907      1910      1912      1914
      1908      1907      1910      1911      1908      1907      1910      1912
      1909      1907      1910      1911      1909      1907      1910      1912
      1910      1912      1914      1915      1910      1912      1914      1916
      1910      1912      1914      1917      1911      1910      1912      1913
      1911      1910      1912      1914      1912      1914      1917      1918
      1912      1914      1917      1919      1912      1914      1917      1920
      1913      1912      1914      1915      1913      1912      1914      1916
      1913      1912      1914      1917      1914      1917      1920      1921
      1914      1917      1920      1922      1914      1917      1920      1923
      1915      1914      1917      1918      1915      1914      1917      1919
      1915      1914      1917      1920      1916      1914      1917      1918
      1916      1914      1917      1919      1916      1914      1917      1920
      1917      1920      1923      1924      1917      1920      1923      1925
      1917      1920      1923      1926      1918      1917      1920      1921
      1918      1917      1920      1922      1918      1917      1920      1923
      1919      1917      1920      1921      1919      1917      1920      1922
      1919      1917      1920      1923      1920      1923      1926      1927
      1920      1923      1926      1928      1920      1923      1926      1929
      1921      1920      1923      1924      1921      1920      1923      1925
      1921      1920      1923      1926      1922      1920      1923      1924
      1922      1920      1923      1925      1922      1920      1923      1926
      1924      1923      1926      1927      1924      1923      1926      1928
      1924      1923      1926      1929      1925      1923      1926      1927
      1925      1923      1926      1928      1925      1923      1926      1929
      1930      1933      1936      1937      1930      1933      1936      1938
      1930      1933      1936      1939      1931      1930      1933      1934
      1931      1930      1933      1935      1931      1930      1933      1936
      1932      1930      1933      1934      1932      1930      1933      1935
      1932      1930      1933      1936      1933      1936      1939      1940
      1933      1936      1939      1941      1933      1936      1939      1942
      1934      1933      1936      1937      1934      1933      1936      1938
      1934      1933      1936      1939      1935      1933      1936      1937
      1935      1933      1936      1938      1935      1933      1936      1939
      1936      1939      1942      1943      1936      1939      1942      1944
      1936      1939      1942      1945      1937      1936      1939      1940
      1937      1936      1939      1941      1937      1936      1939      1942
      1938      1936      1939      1940      1938      1936      1939      1941
      1938      1936      1939      1942      1939      1942      1945      1946
      1939      1942      1945      1947      1939      1942      1945      1948
      1940      1939      1942      1943      1940      1939      1942      1944
      1940      1939      1942      1945      1941      1939      1942      1943
      1941      1939      1942      1944      1941      1939      1942      1945
      1942      1945      1948      1949      1942      1945      1948      1950
      1942      1945      1948      1951      1943      1942      1945      1946
      1943      1942      1945      1947      1943      1942      1945      1948
      1944      1942      1945      1946      1944      1942      1945      1947
      1944      1942      1945      1948      1945      1948      1951      1952
      1945      1948      1951      1953      1945      1948      1951      1954
      1946      1945      1948      1949      1946      1945      1948      1950
      1946      1945      1948      1951      1947      1945      1948      1949
      1947      1945      1948      1950      1947      1945      1948      1951
      1948      1951      1954      1955      1948      1951      1954      1956
      1948      1951      1954      1957      1949      1948      1951      1952
      1949      1948      1951      1953      1949      1948      1951      1954
      1950      1948      1951      1952      1950      1948      1951      1953
      1950      1948      1951      1954      1951      1954      1957      1958
      1951      1954      1957      1959      1951      1954      1957      1960
      1952      1951      1954      1955      1952      1951      1954      1956
      1952      1951      1954      1957      1953      1951      1954      1955
      1953      1951      1954      1956      1953      1951      1954      1957
      1954      1957      1960      1961      1954      1957      1960      1962
      1954      1957      1960      1963      1955      1954      1957      1958
      1955      1954      1957      1959      1955      1954      1957      1960
      1956      1954      1957      1958      1956      1954      1957      1959
      1956      1954      1957      1960      1957      1960      1963      1964
      1957      1960      1963      1965      1957      1960      1963      1966
      1958      1957      1960      1961      1958      1957      1960      1962
      1958      1957      1960      1963      1959      1957      1960      1961
      1959      1957      1960      1962      1959      1957      1960      1963
      1960      1963      1966      1967      1960      1963      1966      1968
      1960      1963      1966      1969      1961      1960      1963      1964
      1961      1960      1963      1965      1961      1960      1963      1966
      1962      1960      1963      1964      1962      1960      1963      1965
      1962      1960      1963      1966      1963      1966      1969      1970
      1963      1966      1969      1971      1963      1966      1969      1972
      1964      1963      1966      1967      1964      1963      1966      1968
      1964      1963      1966      1969      1965      1963      1966      1967
      1965      1963      1966      1968      1965      1963      1966      1969
      1966      1969      1972      1973      1966      1969      1972      1974
      1966      1969      1972      1975      1967      1966      1969      1970
      1967      1966      1969      1971      1967      1966      1969      1972
      1968      1966      1969      1970      1968      1966      1969      1971
      1968      1966      1969      1972      1969      1972      1975      1976
      1969      1972      1975      1977      1969      1972      1975      1978
      1970      1969      1972      1973      1970      1969      1972      1974
      1970      1969      1972      1975      1971      1969      1972      1973
      1971      1969      1972      1974      1971      1969      1972      1975
      1973      1972      1975      1976      1973      1972      1975      1977
      1973      1972      1975      1978      1974      1972      1975      1976
      1974      1972      1975      1977      1974      1972      1975      1978
      1979      1983      1986      1987      1979      1983      1986      2017
      1979      2025      2022      2017      1979      2025      2022      2023
      1979      2025      2022      2024      1980      1979      1981      1982
      1980      1979      1983      1984      1980      1979      1983      1985
      1980      1979      1983      1986      1980      1979      2025      2022
      1980      1979      2025      2026      1980      1979      2025      2027
      1981      1979      1983      1984      1981      1979      1983      1985
      1981      1979      1983      1986      1981      1979      2025      2022
      1981      1979      2025      2026      1981      1979      2025      2027
      1982      1981      1979      1983      1982      1981      1979      2025
      1983      1979      2025      2022      1983      1979      2025      2026
      1983      1979      2025      2027      1983      1986      1987      1988
      1983      1986      1987      1989      1983      1986      2017      2015
      1983      1986      2017      2018      1983      1986      2017      2022
      1984      1983      1979      2025      1984      1983      1986      1987
      1984      1983      1986      2017      1985      1983      1979      2025
      1985      1983      1986      1987      1985      1983      1986      2017
      1986      1983      1979      2025      1986      1987      1989      1990
      1986      1987      1989      1991      1986      1987      1989      1992
      1986      2017      2015      1992      1986      2017      2015      2012
      1986      2017      2015      2016      1986      2017      2018      2019
      1986      2017      2018      2020      1986      2017      2018      2021
      1986      2017      2022      2023      1986      2017      2022      2024
      1986      2017      2022      2025      1987      1986      2017      2015
      1987      1986      2017      2018      1987      1986      2017      2022
      1987      1989      1992      1993      1987      1989      1992      1994
      1987      1989      1992      2015      1988      1987      1986      2017
      1988      1987      1989      1990      1988      1987      1989      1991
      1988      1987      1989      1992      1989      1987      1986      2017
      1989      1992      1994      1995      1989      1992      1994      1996
      1989      1992      1994      2004      1989      1992      2015      2012
      1989      1992      2015      2016      1989      1992      2015      2017
      1990      1989      1992      1993      1990      1989      1992      1994
      1990      1989      1992      2015      1991      1989      1992      1993
      1991      1989      1992      1994      1991      1989      1992      2015
      1992      1994      1996      1997      1992      1994      1996      1998
      1992      1994      1996      1999      1992      1994      2004      2002
      1992      1994      2004      2005      1992      1994      2004      2009
      1992      2015      2012      2009      1992      2015      2012      2013
      1992      2015      2012      2014      1992      2015      2017      2018
      1992      2015      2017      2022      1993      1992      1994      1995
      1993      1992      1994      1996      1993      1992      1994      2004
      1993      1992      2015      2012      1993      1992      2015      2016
      1993      1992      2015      2017      1994      1992      2015      2012
      1994      1992      2015      2016      1994      1992      2015      2017
      1994      1996      1999      2000      1994      1996      1999      2001
      1994      1996      1999      2002      1994      2004      2002      1999
      1994      2004      2002      2003      1994      2004      2002      2028
      1994      2004      2005      2006      1994      2004      2005      2007
      1994      2004      2005      2008      1994      2004      2009      2010
      1994      2004      2009      2011      1994      2004      2009      2012
      1995      1994      1992      2015      1995      1994      1996      1997
      1995      1994      1996      1998      1995      1994      1996      1999
      1995      1994      2004      2002      1995      1994      2004      2005
      1995      1994      2004      2009      1996      1994      1992      2015
      1996      1994      2004      2002      1996      1994      2004      2005
      1996      1994      2004      2009      1996      1999      2002      2003
      1996      1999      2002      2004      1996      1999      2002      2028
      1997      1996      1994      2004      1997      1996      1999      2000
      1997      1996      1999      2001      1997      1996      1999      2002
      1998      1996      1994      2004      1998      1996      1999      2000
      1998      1996      1999      2001      1998      1996      1999      2002
      1999      1996      1994      2004      1999      2002      2004      2005
      1999      2002      2004      2009      1999      2002      2028      2029
      1999      2002      2028      2030      1999      2002      2028      2034
      2000      1999      2002      2003      2000      1999      2002      2004
      2000      1999      2002      2028      2001      1999      2002      2003
      2001      1999      2002      2004      2001      1999      2002      2028
      2002      2004      2005      2006      2002      2004      2005      2007
      2002      2004      2005      2008      2002      2004      2009      2010
      2002      2004      2009      2011      2002      2004      2009      2012
      2002      2028      2030      2031      2002      2028      2030      2032
      2002      2028      2030      2033      2002      2028      2034      2035
      2002      2028      2034      2036      2002      2028      2034      2037
      2003      2002      2004      2005      2003      2002      2004      2009
      2003      2002      2028      2029      2003      2002      2028      2030
      2003      2002      2028      2034      2004      1994      1992      2015
      2004      2002      2028      2029      2004      2002      2028      2030
      2004      2002      2028      2034      2004      2009      2012      2013
      2004      2009      2012      2014      2004      2009      2012      2015
      2005      2004      2002      2028      2005      2004      2009      2010
      2005      2004      2009      2011      2005      2004      2009      2012
      2006      2005      2004      2009      2007      2005      2004      2009
      2008      2005      2004      2009      2009      2004      2002      2028
      2009      2012      2015      2016      2009      2012      2015      2017
      2010      2009      2012      2013      2010      2009      2012      2014
      2010      2009      2012      2015      2011      2009      2012      2013
      2011      2009      2012      2014      2011      2009      2012      2015
      2012      2015      2017      2018      2012      2015      2017      2022
      2013      2012      2015      2016      2013      2012      2015      2017
      2014      2012      2015      2016      2014      2012      2015      2017
      2015      2017      2018      2019      2015      2017      2018      2020
      2015      2017      2018      2021      2015      2017      2022      2023
      2015      2017      2022      2024      2015      2017      2022      2025
      2016      2015      2017      2018      2016      2015      2017      2022
      2017      2022      2025      2026      2017      2022      2025      2027
      2018      2017      2022      2023      2018      2017      2022      2024
      2018      2017      2022      2025      2019      2018      2017      2022
      2020      2018      2017      2022      2021      2018      2017      2022
      2023      2022      2025      2026      2023      2022      2025      2027
      2024      2022      2025      2026      2024      2022      2025      2027
      2028      2034      2037      2038      2028      2034      2037      2039
      2028      2034      2037      2040      2029      2028      2030      2031
      2029      2028      2030      2032      2029      2028      2030      2033
      2029      2028      2034      2035      2029      2028      2034      2036
      2029      2028      2034      2037      2030      2028      2034      2035
      2030      2028      2034      2036      2030      2028      2034      2037
      2031      2030      2028      2034      2032      2030      2028      2034
      2033      2030      2028      2034      2034      2037      2040      2041
      2034      2037      2040      2042      2034      2037      2040      2043
      2035      2034      2037      2038      2035      2034      2037      2039
      2035      2034      2037      2040      2036      2034      2037      2038
      2036      2034      2037      2039      2036      2034      2037      2040
      2037      2040      2043      2044      2037      2040      2043      2045
      2037      2040      2043      2049      2038      2037      2040      2041
      2038      2037      2040      2042      2038      2037      2040      2043
      2039      2037      2040      2041      2039      2037      2040      2042
      2039      2037      2040      2043      2040      2043      2045      2046
      2040      2043      2045      2047      2040      2043      2045      2048
      2040      2043      2049      2050      2040      2043      2049      2051
      2040      2043      2049      2052      2041      2040      2043      2044
      2041      2040      2043      2045      2041      2040      2043      2049
      2042      2040      2043      2044      2042      2040      2043      2045
      2042      2040      2043      2049      2044      2043      2045      2046
      2044      2043      2045      2047      2044      2043      2045      2048
      2044      2043      2049      2050      2044      2043      2049      2051
      2044      2043      2049      2052      2045      2043      2049      2050
      2045      2043      2049      2051      2045      2043      2049      2052
      2046      2045      2043      2049      2047      2045      2043      2049
      2048      2045      2043      2049      2053      2066      2069      2070
      2053      2066      2069      2071      2053      2066      2069      2076
      2054      2053      2058      2059      2054      2053      2058      2060
      2054      2053      2058      2061      2054      2053      2062      2063
      2054      2053      2062      2064      2054      2053      2062      2065
      2054      2053      2066      2067      2054      2053      2066      2068
      2054      2053      2066      2069      2055      2054      2053      2058
      2055      2054      2053      2062      2055      2054      2053      2066
      2056      2054      2053      2058      2056      2054      2053      2062
      2056      2054      2053      2066      2057      2054      2053      2058
      2057      2054      2053      2062      2057      2054      2053      2066
      2058      2053      2062      2063      2058      2053      2062      2064
      2058      2053      2062      2065      2058      2053      2066      2067
      2058      2053      2066      2068      2058      2053      2066      2069
      2059      2058      2053      2062      2059      2058      2053      2066
      2060      2058      2053      2062      2060      2058      2053      2066
      2061      2058      2053      2062      2061      2058      2053      2066
      2062      2053      2066      2067      2062      2053      2066      2068
      2062      2053      2066      2069      2063      2062      2053      2066
      2064      2062      2053      2066      2065      2062      2053      2066
      2066      2069      2076      2072      2067      2066      2069      2070
      2067      2066      2069      2071      2067      2066      2069      2076
      2068      2066      2069      2070      2068      2066      2069      2071
      2068      2066      2069      2076      2069      2076      2072      2073
      2069      2076      2072      2074      2069      2076      2072      2075
      2070      2069      2076      2072      2071      2069      2076      2072
      2072      2075      2077      2078      2072      2075      2077      2079
      2072      2075      2077      2082      2073      2072      2075      2077
      2074      2072      2075      2077      2075      2077      2082      2080
      2075      2077      2082      2083      2075      2077      2082      2084
      2076      2072      2075      2077      2077      2082      2080      2081
      2077      2082      2080      2132      2077      2082      2084      2085
      2077      2082      2084      2086      2077      2082      2084      2088
      2078      2077      2082      2080      2078      2077      2082      2083
      2078      2077      2082      2084      2079      2077      2082      2080
      2079      2077      2082      2083      2079      2077      2082      2084
      2080      2082      2084      2085      2080      2082      2084      2086
      2080      2082      2084      2088      2080      2132      2134      2135
      2080      2132      2134      2136      2080      2132      2134      2137
      2081      2080      2082      2083      2081      2080      2082      2084
      2081      2080      2132      2133      2081      2080      2132      2134
      2082      2080      2132      2133      2082      2080      2132      2134
      2082      2084      2086      2087      2082      2084      2088      2089
      2082      2084      2088      2090      2083      2082      2080      2132
      2083      2082      2084      2085      2083      2082      2084      2086
      2083      2082      2084      2088      2084      2082      2080      2132
      2084      2088      2090      2091      2084      2088      2090      2092
      2085      2084      2086      2087      2085      2084      2088      2089
      2085      2084      2088      2090      2086      2084      2088      2089
      2086      2084      2088      2090      2087      2086      2084      2088
      2088      2090      2092      2093      2088      2090      2092      2094
      2088      2090      2092      2095      2089      2088      2090      2091
      2089      2088      2090      2092      2090      2092      2095      2096
      2090      2092      2095      2097      2090      2092      2095      2098
      2091      2090      2092      2093      2091      2090      2092      2094
      2091      2090      2092      2095      2092      2095      2098      2099
      2092      2095      2098      2100      2092      2095      2098      2101
      2093      2092      2095      2096      2093      2092      2095      2097
      2093      2092      2095      2098      2094      2092      2095      2096
      2094      2092      2095      2097      2094      2092      2095      2098
      2095      2098      2101      2102      2095      2098      2101      2103
      2095      2098      2101      2104      2096      2095      2098      2099
      2096      2095      2098      2100      2096      2095      2098      2101
      2097      2095      2098      2099      2097      2095      2098      2100
      2097      2095      2098      2101      2098      2101      2104      2105
      2098      2101      2104      2106      2098      2101      2104      2107
      2099      2098      2101      2102      2099      2098      2101      2103
      2099      2098      2101      2104      2100      2098      2101      2102
      2100      2098      2101      2103      2100      2098      2101      2104
      2101      2104      2107      2108      2101      2104      2107      2109
      2101      2104      2107      2110      2102      2101      2104      2105
      2102      2101      2104      2106      2102      2101      2104      2107
      2103      2101      2104      2105      2103      2101      2104      2106
      2103      2101      2104      2107      2104      2107      2110      2111
      2104      2107      2110      2112      2104      2107      2110      2113
      2105      2104      2107      2108      2105      2104      2107      2109
      2105      2104      2107      2110      2106      2104      2107      2108
      2106      2104      2107      2109      2106      2104      2107      2110
      2107      2110      2113      2114      2107      2110      2113      2115
      2107      2110      2113      2116      2108      2107      2110      2111
      2108      2107      2110      2112      2108      2107      2110      2113
      2109      2107      2110      2111      2109      2107      2110      2112
      2109      2107      2110      2113      2110      2113      2116      2117
      2110      2113      2116      2118      2110      2113      2116      2119
      2111      2110      2113      2114      2111      2110      2113      2115
      2111      2110      2113      2116      2112      2110      2113      2114
      2112      2110      2113      2115      2112      2110      2113      2116
      2113      2116      2119      2120      2113      2116      2119      2121
      2113      2116      2119      2122      2114      2113      2116      2117
      2114      2113      2116      2118      2114      2113      2116      2119
      2115      2113      2116      2117      2115      2113      2116      2118
      2115      2113      2116      2119      2116      2119      2122      2123
      2116      2119      2122      2124      2116      2119      2122      2125
      2117      2116      2119      2120      2117      2116      2119      2121
      2117      2116      2119      2122      2118      2116      2119      2120
      2118      2116      2119      2121      2118      2116      2119      2122
      2119      2122      2125      2126      2119      2122      2125      2127
      2119      2122      2125      2128      2120      2119      2122      2123
      2120      2119      2122      2124      2120      2119      2122      2125
      2121      2119      2122      2123      2121      2119      2122      2124
      2121      2119      2122      2125      2122      2125      2128      2129
      2122      2125      2128      2130      2122      2125      2128      2131
      2123      2122      2125      2126      2123      2122      2125      2127
      2123      2122      2125      2128      2124      2122      2125      2126
      2124      2122      2125      2127      2124      2122      2125      2128
      2126      2125      2128      2129      2126      2125      2128      2130
      2126      2125      2128      2131      2127      2125      2128      2129
      2127      2125      2128      2130      2127      2125      2128      2131
      2132      2134      2137      2138      2132      2134      2137      2139
      2132      2134      2137      2140      2133      2132      2134      2135
      2133      2132      2134      2136      2133      2132      2134      2137
      2134      2137      2140      2141      2134      2137      2140      2142
      2134      2137      2140      2143      2135      2134      2137      2138
      2135      2134      2137      2139      2135      2134      2137      2140
      2136      2134      2137      2138      2136      2134      2137      2139
      2136      2134      2137      2140      2137      2140      2143      2144
      2137      2140      2143      2145      2137      2140      2143      2146
      2138      2137      2140      2141      2138      2137      2140      2142
      2138      2137      2140      2143      2139      2137      2140      2141
      2139      2137      2140      2142      2139      2137      2140      2143
      2140      2143      2146      2147      2140      2143      2146      2148
      2140      2143      2146      2149      2141      2140      2143      2144
      2141      2140      2143      2145      2141      2140      2143      2146
      2142      2140      2143      2144      2142      2140      2143      2145
      2142      2140      2143      2146      2143      2146      2149      2150
      2143      2146      2149      2151      2143      2146      2149      2152
      2144      2143      2146      2147      2144      2143      2146      2148
      2144      2143      2146      2149      2145      2143      2146      2147
      2145      2143      2146      2148      2145      2143      2146      2149
      2146      2149      2152      2153      2146      2149      2152      2154
      2146      2149      2152      2155      2147      2146      2149      2150
      2147      2146      2149      2151      2147      2146      2149      2152
      2148      2146      2149      2150      2148      2146      2149      2151
      2148      2146      2149      2152      2149      2152      2155      2156
      2149      2152      2155      2157      2150      2149      2152      2153
      2150      2149      2152      2154      2150      2149      2152      2155
      2151      2149      2152      2153      2151      2149      2152      2154
      2151      2149      2152      2155      2152      2155      2157      2158
      2152      2155      2157      2159      2153      2152      2155      2156
      2153      2152      2155      2157      2154      2152      2155      2156
      2154      2152      2155      2157      2155      2157      2159      2160
      2155      2157      2159      2161      2155      2157      2159      2162
      2156      2155      2157      2158      2156      2155      2157      2159
      2157      2159      2162      2163      2157      2159      2162      2164
      2157      2159      2162      2165      2158      2157      2159      2160
      2158      2157      2159      2161      2158      2157      2159      2162
      2159      2162      2165      2166      2159      2162      2165      2167
      2159      2162      2165      2168      2160      2159      2162      2163
      2160      2159      2162      2164      2160      2159      2162      2165
      2161      2159      2162      2163      2161      2159      2162      2164
      2161      2159      2162      2165      2162      2165      2168      2169
      2162      2165      2168      2170      2162      2165      2168      2171
      2163      2162      2165      2166      2163      2162      2165      2167
      2163      2162      2165      2168      2164      2162      2165      2166
      2164      2162      2165      2167      2164      2162      2165      2168
      2165      2168      2171      2172      2165      2168      2171      2173
      2165      2168      2171      2174      2166      2165      2168      2169
      2166      2165      2168      2170      2166      2165      2168      2171
      2167      2165      2168      2169      2167      2165      2168      2170
      2167      2165      2168      2171      2168      2171      2174      2175
      2168      2171      2174      2176      2168      2171      2174      2177
      2169      2168      2171      2172      2169      2168      2171      2173
      2169      2168      2171      2174      2170      2168      2171      2172
      2170      2168      2171      2173      2170      2168      2171      2174
      2171      2174      2177      2178      2171      2174      2177      2179
      2171      2174      2177      2180      2172      2171      2174      2175
      2172      2171      2174      2176      2172      2171      2174      2177
      2173      2171      2174      2175      2173      2171      2174      2176
      2173      2171      2174      2177      2174      2177      2180      2181
      2174      2177      2180      2182      2174      2177      2180      2183
      2175      2174      2177      2178      2175      2174      2177      2179
      2175      2174      2177      2180      2176      2174      2177      2178
      2176      2174      2177      2179      2176      2174      2177      2180
      2178      2177      2180      2181      2178      2177      2180      2182
      2178      2177      2180      2183      2179      2177      2180      2181
      2179      2177      2180      2182      2179      2177      2180      2183
      2184      2188      2191      2192      2184      2188      2191      2222
      2184      2230      2227      2222      2184      2230      2227      2228
      2184      2230      2227      2229      2185      2184      2186      2187
      2185      2184      2188      2189      2185      2184      2188      2190
      2185      2184      2188      2191      2185      2184      2230      2227
      2185      2184      2230      2231      2185      2184      2230      2232
      2186      2184      2188      2189      2186      2184      2188      2190
      2186      2184      2188      2191      2186      2184      2230      2227
      2186      2184      2230      2231      2186      2184      2230      2232
      2187      2186      2184      2188      2187      2186      2184      2230
      2188      2184      2230      2227      2188      2184      2230      2231
      2188      2184      2230      2232      2188      2191      2192      2193
      2188      2191      2192      2194      2188      2191      2222      2220
      2188      2191      2222      2223      2188      2191      2222      2227
      2189      2188      2184      2230      2189      2188      2191      2192
      2189      2188      2191      2222      2190      2188      2184      2230
      2190      2188      2191      2192      2190      2188      2191      2222
      2191      2188      2184      2230      2191      2192      2194      2195
      2191      2192      2194      2196      2191      2192      2194      2197
      2191      2222      2220      2197      2191      2222      2220      2217
      2191      2222      2220      2221      2191      2222      2223      2224
      2191      2222      2223      2225      2191      2222      2223      2226
      2191      2222      2227      2228      2191      2222      2227      2229
      2191      2222      2227      2230      2192      2191      2222      2220
      2192      2191      2222      2223      2192      2191      2222      2227
      2192      2194      2197      2198      2192      2194      2197      2199
      2192      2194      2197      2220      2193      2192      2191      2222
      2193      2192      2194      2195      2193      2192      2194      2196
      2193      2192      2194      2197      2194      2192      2191      2222
      2194      2197      2199      2200      2194      2197      2199      2201
      2194      2197      2199      2209      2194      2197      2220      2217
      2194      2197      2220      2221      2194      2197      2220      2222
      2195      2194      2197      2198      2195      2194      2197      2199
      2195      2194      2197      2220      2196      2194      2197      2198
      2196      2194      2197      2199      2196      2194      2197      2220
      2197      2199      2201      2202      2197      2199      2201      2203
      2197      2199      2201      2204      2197      2199      2209      2207
      2197      2199      2209      2210      2197      2199      2209      2214
      2197      2220      2217      2214      2197      2220      2217      2218
      2197      2220      2217      2219      2197      2220      2222      2223
      2197      2220      2222      2227      2198      2197      2199      2200
      2198      2197      2199      2201      2198      2197      2199      2209
      2198      2197      2220      2217      2198      2197      2220      2221
      2198      2197      2220      2222      2199      2197      2220      2217
      2199      2197      2220      2221      2199      2197      2220      2222
      2199      2201      2204      2205      2199      2201      2204      2206
      2199      2201      2204      2207      2199      2209      2207      2204
      2199      2209      2207      2208      2199      2209      2207      2233
      2199      2209      2210      2211      2199      2209      2210      2212
      2199      2209      2210      2213      2199      2209      2214      2215
      2199      2209      2214      2216      2199      2209      2214      2217
      2200      2199      2197      2220      2200      2199      2201      2202
      2200      2199      2201      2203      2200      2199      2201      2204
      2200      2199      2209      2207      2200      2199      2209      2210
      2200      2199      2209      2214      2201      2199      2197      2220
      2201      2199      2209      2207      2201      2199      2209      2210
      2201      2199      2209      2214      2201      2204      2207      2208
      2201      2204      2207      2209      2201      2204      2207      2233
      2202      2201      2199      2209      2202      2201      2204      2205
      2202      2201      2204      2206      2202      2201      2204      2207
      2203      2201      2199      2209      2203      2201      2204      2205
      2203      2201      2204      2206      2203      2201      2204      2207
      2204      2201      2199      2209      2204      2207      2209      2210
      2204      2207      2209      2214      2204      2207      2233      2234
      2204      2207      2233      2235      2204      2207      2233      2239
      2205      2204      2207      2208      2205      2204      2207      2209
      2205      2204      2207      2233      2206      2204      2207      2208
      2206      2204      2207      2209      2206      2204      2207      2233
      2207      2209      2210      2211      2207      2209      2210      2212
      2207      2209      2210      2213      2207      2209      2214      2215
      2207      2209      2214      2216      2207      2209      2214      2217
      2207      2233      2235      2236      2207      2233      2235      2237
      2207      2233      2235      2238      2207      2233      2239      2240
      2207      2233      2239      2241      2207      2233      2239      2242
      2208      2207      2209      2210      2208      2207      2209      2214
      2208      2207      2233      2234      2208      2207      2233      2235
      2208      2207      2233      2239      2209      2199      2197      2220
      2209      2207      2233      2234      2209      2207      2233      2235
      2209      2207      2233      2239      2209      2214      2217      2218
      2209      2214      2217      2219      2209      2214      2217      2220
      2210      2209      2207      2233      2210      2209      2214      2215
      2210      2209      2214      2216      2210      2209      2214      2217
      2211      2210      2209      2214      2212      2210      2209      2214
      2213      2210      2209      2214      2214      2209      2207      2233
      2214      2217      2220      2221      2214      2217      2220      2222
      2215      2214      2217      2218      2215      2214      2217      2219
      2215      2214      2217      2220      2216      2214      2217      2218
      2216      2214      2217      2219      2216      2214      2217      2220
      2217      2220      2222      2223      2217      2220      2222      2227
      2218      2217      2220      2221      2218      2217      2220      2222
      2219      2217      2220      2221      2219      2217      2220      2222
      2220      2222      2223      2224      2220      2222      2223      2225
      2220      2222      2223      2226      2220      2222      2227      2228
      2220      2222      2227      2229      2220      2222      2227      2230
      2221      2220      2222      2223      2221      2220      2222      2227
      2222      2227      2230      2231      2222      2227      2230      2232
      2223      2222      2227      2228      2223      2222      2227      2229
      2223      2222      2227      2230      2224      2223      2222      2227
      2225      2223      2222      2227      2226      2223      2222      2227
      2228      2227      2230      2231      2228      2227      2230      2232
      2229      2227      2230      2231      2229      2227      2230      2232
      2233      2239      2242      2243      2233      2239      2242      2244
      2233      2239      2242      2245      2234      2233      2235      2236
      2234      2233      2235      2237      2234      2233      2235      2238
      2234      2233      2239      2240      2234      2233      2239      2241
      2234      2233      2239      2242      2235      2233      2239      2240
      2235      2233      2239      2241      2235      2233      2239      2242
      2236      2235      2233      2239      2237      2235      2233      2239
      2238      2235      2233      2239      2239      2242      2245      2246
      2239      2242      2245      2247      2239      2242      2245      2248
      2240      2239      2242      2243      2240      2239      2242      2244
      2240      2239      2242      2245      2241      2239      2242      2243
      2241      2239      2242      2244      2241      2239      2242      2245
      2242      2245      2248      2249      2242      2245      2248      2250
      2242      2245      2248      2254      2243      2242      2245      2246
      2243      2242      2245      2247      2243      2242      2245      2248
      2244      2242      2245      2246      2244      2242      2245      2247
      2244      2242      2245      2248      2245      2248      2250      2251
      2245      2248      2250      2252      2245      2248      2250      2253
      2245      2248      2254      2255      2245      2248      2254      2256
      2245      2248      2254      2257      2246      2245      2248      2249
      2246      2245      2248      2250      2246      2245      2248      2254
      2247      2245      2248      2249      2247      2245      2248      2250
      2247      2245      2248      2254      2249      2248      2250      2251
      2249      2248      2250      2252      2249      2248      2250      2253
      2249      2248      2254      2255      2249      2248      2254      2256
      2249      2248      2254      2257      2250      2248      2254      2255
      2250      2248      2254      2256      2250      2248      2254      2257
      2251      2250      2248      2254      2252      2250      2248      2254
      2253      2250      2248      2254      2258      2262      2265      2266
      2258      2262      2265      2296      2258      2304      2301      2296
      2258      2304      2301      2302      2258      2304      2301      2303
      2259      2258      2260      2261      2259      2258      2262      2263
      2259      2258      2262      2264      2259      2258      2262      2265
      2259      2258      2304      2301      2259      2258      2304      2305
      2259      2258      2304      2306      2260      2258      2262      2263
      2260      2258      2262      2264      2260      2258      2262      2265
      2260      2258      2304      2301      2260      2258      2304      2305
      2260      2258      2304      2306      2261      2260      2258      2262
      2261      2260      2258      2304      2262      2258      2304      2301
      2262      2258      2304      2305      2262      2258      2304      2306
      2262      2265      2266      2267      2262      2265      2266      2268
      2262      2265      2296      2294      2262      2265      2296      2297
      2262      2265      2296      2301      2263      2262      2258      2304
      2263      2262      2265      2266      2263      2262      2265      2296
      2264      2262      2258      2304      2264      2262      2265      2266
      2264      2262      2265      2296      2265      2262      2258      2304
      2265      2266      2268      2269      2265      2266      2268      2270
      2265      2266      2268      2271      2265      2296      2294      2271
      2265      2296      2294      2291      2265      2296      2294      2295
      2265      2296      2297      2298      2265      2296      2297      2299
      2265      2296      2297      2300      2265      2296      2301      2302
      2265      2296      2301      2303      2265      2296      2301      2304
      2266      2265      2296      2294      2266      2265      2296      2297
      2266      2265      2296      2301      2266      2268      2271      2272
      2266      2268      2271      2273      2266      2268      2271      2294
      2267      2266      2265      2296      2267      2266      2268      2269
      2267      2266      2268      2270      2267      2266      2268      2271
      2268      2266      2265      2296      2268      2271      2273      2274
      2268      2271      2273      2275      2268      2271      2273      2283
      2268      2271      2294      2291      2268      2271      2294      2295
      2268      2271      2294      2296      2269      2268      2271      2272
      2269      2268      2271      2273      2269      2268      2271      2294
      2270      2268      2271      2272      2270      2268      2271      2273
      2270      2268      2271      2294      2271      2273      2275      2276
      2271      2273      2275      2277      2271      2273      2275      2278
      2271      2273      2283      2281      2271      2273      2283      2284
      2271      2273      2283      2288      2271      2294      2291      2288
      2271      2294      2291      2292      2271      2294      2291      2293
      2271      2294      2296      2297      2271      2294      2296      2301
      2272      2271      2273      2274      2272      2271      2273      2275
      2272      2271      2273      2283      2272      2271      2294      2291
      2272      2271      2294      2295      2272      2271      2294      2296
      2273      2271      2294      2291      2273      2271      2294      2295
      2273      2271      2294      2296      2273      2275      2278      2279
      2273      2275      2278      2280      2273      2275      2278      2281
      2273      2283      2281      2278      2273      2283      2281      2282
      2273      2283      2281      2307      2273      2283      2284      2285
      2273      2283      2284      2286      2273      2283      2284      2287
      2273      2283      2288      2289      2273      2283      2288      2290
      2273      2283      2288      2291      2274      2273      2271      2294
      2274      2273      2275      2276      2274      2273      2275      2277
      2274      2273      2275      2278      2274      2273      2283      2281
      2274      2273      2283      2284      2274      2273      2283      2288
      2275      2273      2271      2294      2275      2273      2283      2281
      2275      2273      2283      2284      2275      2273      2283      2288
      2275      2278      2281      2282      2275      2278      2281      2283
      2275      2278      2281      2307      2276      2275      2273      2283
      2276      2275      2278      2279      2276      2275      2278      2280
      2276      2275      2278      2281      2277      2275      2273      2283
      2277      2275      2278      2279      2277      2275      2278      2280
      2277      2275      2278      2281      2278      2275      2273      2283
      2278      2281      2283      2284      2278      2281      2283      2288
      2278      2281      2307      2308      2278      2281      2307      2309
      2278      2281      2307      2313      2279      2278      2281      2282
      2279      2278      2281      2283      2279      2278      2281      2307
      2280      2278      2281      2282      2280      2278      2281      2283
      2280      2278      2281      2307      2281      2283      2284      2285
      2281      2283      2284      2286      2281      2283      2284      2287
      2281      2283      2288      2289      2281      2283      2288      2290
      2281      2283      2288      2291      2281      2307      2309      2310
      2281      2307      2309      2311      2281      2307      2309      2312
      2281      2307      2313      2314      2281      2307      2313      2315
      2281      2307      2313      2316      2282      2281      2283      2284
      2282      2281      2283      2288      2282      2281      2307      2308
      2282      2281      2307      2309      2282      2281      2307      2313
      2283      2273      2271      2294      2283      2281      2307      2308
      2283      2281      2307      2309      2283      2281      2307      2313
      2283      2288      2291      2292      2283      2288      2291      2293
      2283      2288      2291      2294      2284      2283      2281      2307
      2284      2283      2288      2289      2284      2283      2288      2290
      2284      2283      2288      2291      2285      2284      2283      2288
      2286      2284      2283      2288      2287      2284      2283      2288
      2288      2283      2281      2307      2288      2291      2294      2295
      2288      2291      2294      2296      2289      2288      2291      2292
      2289      2288      2291      2293      2289      2288      2291      2294
      2290      2288      2291      2292      2290      2288      2291      2293
      2290      2288      2291      2294      2291      2294      2296      2297
      2291      2294      2296      2301      2292      2291      2294      2295
      2292      2291      2294      2296      2293      2291      2294      2295
      2293      2291      2294      2296      2294      2296      2297      2298
      2294      2296      2297      2299      2294      2296      2297      2300
      2294      2296      2301      2302      2294      2296      2301      2303
      2294      2296      2301      2304      2295      2294      2296      2297
      2295      2294      2296      2301      2296      2301      2304      2305
      2296      2301      2304      2306      2297      2296      2301      2302
      2297      2296      2301      2303      2297      2296      2301      2304
      2298      2297      2296      2301      2299      2297      2296      2301
      2300      2297      2296      2301      2302      2301      2304      2305
      2302      2301      2304      2306      2303      2301      2304      2305
      2303      2301      2304      2306      2307      2313      2316      2317
      2307      2313      2316      2318      2307      2313      2316      2319
      2308      2307      2309      2310      2308      2307      2309      2311
      2308      2307      2309      2312      2308      2307      2313      2314
      2308      2307      2313      2315      2308      2307      2313      2316
      2309      2307      2313      2314      2309      2307      2313      2315
      2309      2307      2313      2316      2310      2309      2307      2313
      2311      2309      2307      2313      2312      2309      2307      2313
      2313      2316      2319      2320      2313      2316      2319      2321
      2313      2316      2319      2322      2314      2313      2316      2317
      2314      2313      2316      2318      2314      2313      2316      2319
      2315      2313      2316      2317      2315      2313      2316      2318
      2315      2313      2316      2319      2316      2319      2322      2323
      2316      2319      2322      2324      2316      2319      2322      2328
      2317      2316      2319      2320      2317      2316      2319      2321
      2317      2316      2319      2322      2318      2316      2319      2320
      2318      2316      2319      2321      2318      2316      2319      2322
      2319      2322      2324      2325      2319      2322      2324      2326
      2319      2322      2324      2327      2319      2322      2328      2329
      2319      2322      2328      2330      2319      2322      2328      2331
      2320      2319      2322      2323      2320      2319      2322      2324
      2320      2319      2322      2328      2321      2319      2322      2323
      2321      2319      2322      2324      2321      2319      2322      2328
      2323      2322      2324      2325      2323      2322      2324      2326
      2323      2322      2324      2327      2323      2322      2328      2329
      2323      2322      2328      2330      2323      2322      2328      2331
      2324      2322      2328      2329      2324      2322      2328      2330
      2324      2322      2328      2331      2325      2324      2322      2328
      2326      2324      2322      2328      2327      2324      2322      2328
      2332      2336      2339      2340      2332      2336      2339      2370
      2332      2378      2375      2370      2332      2378      2375      2376
      2332      2378      2375      2377      2333      2332      2334      2335
      2333      2332      2336      2337      2333      2332      2336      2338
      2333      2332      2336      2339      2333      2332      2378      2375
      2333      2332      2378      2379      2333      2332      2378      2380
      2334      2332      2336      2337      2334      2332      2336      2338
      2334      2332      2336      2339      2334      2332      2378      2375
      2334      2332      2378      2379      2334      2332      2378      2380
      2335      2334      2332      2336      2335      2334      2332      2378
      2336      2332      2378      2375      2336      2332      2378      2379
      2336      2332      2378      2380      2336      2339      2340      2341
      2336      2339      2340      2342      2336      2339      2370      2368
      2336      2339      2370      2371      2336      2339      2370      2375
      2337      2336      2332      2378      2337      2336      2339      2340
      2337      2336      2339      2370      2338      2336      2332      2378
      2338      2336      2339      2340      2338      2336      2339      2370
      2339      2336      2332      2378      2339      2340      2342      2343
      2339      2340      2342      2344      2339      2340      2342      2345
      2339      2370      2368      2345      2339      2370      2368      2365
      2339      2370      2368      2369      2339      2370      2371      2372
      2339      2370      2371      2373      2339      2370      2371      2374
      2339      2370      2375      2376      2339      2370      2375      2377
      2339      2370      2375      2378      2340      2339      2370      2368
      2340      2339      2370      2371      2340      2339      2370      2375
      2340      2342      2345      2346      2340      2342      2345      2347
      2340      2342      2345      2368      2341      2340      2339      2370
      2341      2340      2342      2343      2341      2340      2342      2344
      2341      2340      2342      2345      2342      2340      2339      2370
      2342      2345      2347      2348      2342      2345      2347      2349
      2342      2345      2347      2357      2342      2345      2368      2365
      2342      2345      2368      2369      2342      2345      2368      2370
      2343      2342      2345      2346      2343      2342      2345      2347
      2343      2342      2345      2368      2344      2342      2345      2346
      2344      2342      2345      2347      2344      2342      2345      2368
      2345      2347      2349      2350      2345      2347      2349      2351
      2345      2347      2349      2352      2345      2347      2357      2355
      2345      2347      2357      2358      2345      2347      2357      2362
      2345      2368      2365      2362      2345      2368      2365      2366
      2345      2368      2365      2367      2345      2368      2370      2371
      2345      2368      2370      2375      2346      2345      2347      2348
      2346      2345      2347      2349      2346      2345      2347      2357
      2346      2345      2368      2365      2346      2345      2368      2369
      2346      2345      2368      2370      2347      2345      2368      2365
      2347      2345      2368      2369      2347      2345      2368      2370
      2347      2349      2352      2353      2347      2349      2352      2354
      2347      2349      2352      2355      2347      2357      2355      2352
      2347      2357      2355      2356      2347      2357      2355      2381
      2347      2357      2358      2359      2347      2357      2358      2360
      2347      2357      2358      2361      2347      2357      2362      2363
      2347      2357      2362      2364      2347      2357      2362      2365
      2348      2347      2345      2368      2348      2347      2349      2350
      2348      2347      2349      2351      2348      2347      2349      2352
      2348      2347      2357      2355      2348      2347      2357      2358
      2348      2347      2357      2362      2349      2347      2345      2368
      2349      2347      2357      2355      2349      2347      2357      2358
      2349      2347      2357      2362      2349      2352      2355      2356
      2349      2352      2355      2357      2349      2352      2355      2381
      2350      2349      2347      2357      2350      2349      2352      2353
      2350      2349      2352      2354      2350      2349      2352      2355
      2351      2349      2347      2357      2351      2349      2352      2353
      2351      2349      2352      2354      2351      2349      2352      2355
      2352      2349      2347      2357      2352      2355      2357      2358
      2352      2355      2357      2362      2352      2355      2381      2382
      2352      2355      2381      2383      2352      2355      2381      2387
      2353      2352      2355      2356      2353      2352      2355      2357
      2353      2352      2355      2381      2354      2352      2355      2356
      2354      2352      2355      2357      2354      2352      2355      2381
      2355      2357      2358      2359      2355      2357      2358      2360
      2355      2357      2358      2361      2355      2357      2362      2363
      2355      2357      2362      2364      2355      2357      2362      2365
      2355      2381      2383      2384      2355      2381      2383      2385
      2355      2381      2383      2386      2355      2381      2387      2388
      2355      2381      2387      2389      2355      2381      2387      2390
      2356      2355      2357      2358      2356      2355      2357      2362
      2356      2355      2381      2382      2356      2355      2381      2383
      2356      2355      2381      2387      2357      2347      2345      2368
      2357      2355      2381      2382      2357      2355      2381      2383
      2357      2355      2381      2387      2357      2362      2365      2366
      2357      2362      2365      2367      2357      2362      2365      2368
      2358      2357      2355      2381      2358      2357      2362      2363
      2358      2357      2362      2364      2358      2357      2362      2365
      2359      2358      2357      2362      2360      2358      2357      2362
      2361      2358      2357      2362      2362      2357      2355      2381
      2362      2365      2368      2369      2362      2365      2368      2370
      2363      2362      2365      2366      2363      2362      2365      2367
      2363      2362      2365      2368      2364      2362      2365      2366
      2364      2362      2365      2367      2364      2362      2365      2368
      2365      2368      2370      2371      2365      2368      2370      2375
      2366      2365      2368      2369      2366      2365      2368      2370
      2367      2365      2368      2369      2367      2365      2368      2370
      2368      2370      2371      2372      2368      2370      2371      2373
      2368      2370      2371      2374      2368      2370      2375      2376
      2368      2370      2375      2377      2368      2370      2375      2378
      2369      2368      2370      2371      2369      2368      2370      2375
      2370      2375      2378      2379      2370      2375      2378      2380
      2371      2370      2375      2376      2371      2370      2375      2377
      2371      2370      2375      2378      2372      2371      2370      2375
      2373      2371      2370      2375      2374      2371      2370      2375
      2376      2375      2378      2379      2376      2375      2378      2380
      2377      2375      2378      2379      2377      2375      2378      2380
      2381      2387      2390      2391      2381      2387      2390      2392
      2381      2387      2390      2393      2382      2381      2383      2384
      2382      2381      2383      2385      2382      2381      2383      2386
      2382      2381      2387      2388      2382      2381      2387      2389
      2382      2381      2387      2390      2383      2381      2387      2388
      2383      2381      2387      2389      2383      2381      2387      2390
      2384      2383      2381      2387      2385      2383      2381      2387
      2386      2383      2381      2387      2387      2390      2393      2394
      2387      2390      2393      2395      2387      2390      2393      2396
      2388      2387      2390      2391      2388      2387      2390      2392
      2388      2387      2390      2393      2389      2387      2390      2391
      2389      2387      2390      2392      2389      2387      2390      2393
      2390      2393      2396      2397      2390      2393      2396      2398
      2390      2393      2396      2402      2391      2390      2393      2394
      2391      2390      2393      2395      2391      2390      2393      2396
      2392      2390      2393      2394      2392      2390      2393      2395
      2392      2390      2393      2396      2393      2396      2398      2399
      2393      2396      2398      2400      2393      2396      2398      2401
      2393      2396      2402      2403      2393      2396      2402      2404
      2393      2396      2402      2405      2394      2393      2396      2397
      2394      2393      2396      2398      2394      2393      2396      2402
      2395      2393      2396      2397      2395      2393      2396      2398
      2395      2393      2396      2402      2397      2396      2398      2399
      2397      2396      2398      2400      2397      2396      2398      2401
      2397      2396      2402      2403      2397      2396      2402      2404
      2397      2396      2402      2405      2398      2396      2402      2403
      2398      2396      2402      2404      2398      2396      2402      2405
      2399      2398      2396      2402      2400      2398      2396      2402
      2401      2398      2396      2402      2406      2410      2412      2413
      2406      2410      2412      2414      2406      2410      2415      2416
      2406      2410      2415      2417      2406      2410      2415      2421
      2407      2406      2410      2411      2407      2406      2410      2412
      2407      2406      2410      2415      2408      2406      2410      2411
      2408      2406      2410      2412      2408      2406      2410      2415
      2409      2406      2410      2411      2409      2406      2410      2412
      2409      2406      2410      2415      2410      2415      2421      2418
      2411      2410      2412      2413      2411      2410      2412      2414
      2411      2410      2415      2416      2411      2410      2415      2417
      2411      2410      2415      2421      2412      2410      2415      2416
      2412      2410      2415      2417      2412      2410      2415      2421
      2413      2412      2410      2415      2414      2412      2410      2415
      2415      2421      2418      2419      2415      2421      2418      2420
      2415      2421      2418      2422      2416      2415      2421      2418
      2417      2415      2421      2418      2418      2422      2423      2424
      2418      2422      2423      2425      2418      2422      2423      2426
      2419      2418      2422      2423      2420      2418      2422      2423
      2421      2418      2422      2423      2422      2423      2426      2427
      2422      2423      2426      2428      2422      2423      2426      2434
      2423      2426      2428      2429      2423      2426      2434      2435
      2423      2426      2434      2436      2423      2426      2434      2437
      2424      2423      2426      2427      2424      2423      2426      2428
      2424      2423      2426      2434      2425      2423      2426      2427
      2425      2423      2426      2428      2425      2423      2426      2434
      2426      2428      2429      2430      2426      2428      2429      2431
      2426      2434      2437      2438      2427      2426      2428      2429
      2427      2426      2434      2435      2427      2426      2434      2436
      2427      2426      2434      2437      2428      2426      2434      2435
      2428      2426      2434      2436      2428      2426      2434      2437
      2428      2429      2431      2432      2428      2429      2431      2433
      2428      2429      2431      2443      2429      2428      2426      2434
      2429      2431      2443      2444      2429      2431      2443      2445
      2429      2431      2443      2446      2430      2429      2431      2432
      2430      2429      2431      2433      2430      2429      2431      2443
      2431      2443      2446      2447      2431      2443      2446      2448
      2431      2443      2446      2449      2432      2431      2443      2444
      2432      2431      2443      2445      2432      2431      2443      2446
      2433      2431      2443      2444      2433      2431      2443      2445
      2433      2431      2443      2446      2434      2437      2438      2439
      2434      2437      2438      2440      2435      2434      2437      2438
      2436      2434      2437      2438      2437      2438      2440      2441
      2437      2438      2440      2442      2437      2438      2440      2490
      2438      2440      2490      2491      2438      2440      2490      2492
      2438      2440      2490      2493      2439      2438      2440      2441
      2439      2438      2440      2442      2439      2438      2440      2490
      2440      2490      2493      2494      2440      2490      2493      2495
      2440      2490      2493      2496      2441      2440      2490      2491
      2441      2440      2490      2492      2441      2440      2490      2493
      2442      2440      2490      2491      2442      2440      2490      2492
      2442      2440      2490      2493      2443      2446      2449      2450
      2443      2446      2449      2451      2444      2443      2446      2447
      2444      2443      2446      2448      2444      2443      2446      2449
      2445      2443      2446      2447      2445      2443      2446      2448
      2445      2443      2446      2449      2446      2449      2451      2452
      2446      2449      2451      2453      2447      2446      2449      2450
      2447      2446      2449      2451      2448      2446      2449      2450
      2448      2446      2449      2451      2449      2451      2453      2454
      2449      2451      2453      2455      2449      2451      2453      2456
      2450      2449      2451      2452      2450      2449      2451      2453
      2451      2453      2456      2457      2451      2453      2456      2458
      2452      2451      2453      2454      2452      2451      2453      2455
      2452      2451      2453      2456      2453      2456      2458      2459
      2453      2456      2458      2460      2454      2453      2456      2457
      2454      2453      2456      2458      2455      2453      2456      2457
      2455      2453      2456      2458      2456      2458      2460      2461
      2456      2458      2460      2462      2456      2458      2460      2463
      2457      2456      2458      2459      2457      2456      2458      2460
      2458      2460      2463      2464      2458      2460      2463      2465
      2459      2458      2460      2461      2459      2458      2460      2462
      2459      2458      2460      2463      2460      2463      2465      2466
      2460      2463      2465      2467      2461      2460      2463      2464
      2461      2460      2463      2465      2462      2460      2463      2464
      2462      2460      2463      2465      2463      2465      2467      2468
      2463      2465      2467      2469      2463      2465      2467      2470
      2464      2463      2465      2466      2464      2463      2465      2467
      2465      2467      2470      2471      2465      2467      2470      2472
      2466      2465      2467      2468      2466      2465      2467      2469
      2466      2465      2467      2470      2467      2470      2472      2473
      2467      2470      2472      2474      2468      2467      2470      2471
      2468      2467      2470      2472      2469      2467      2470      2471
      2469      2467      2470      2472      2470      2472      2474      2475
      2470      2472      2474      2476      2470      2472      2474      2477
      2471      2470      2472      2473      2471      2470      2472      2474
      2472      2474      2477      2478      2472      2474      2477      2479
      2472      2474      2477      2480      2473      2472      2474      2475
      2473      2472      2474      2476      2473      2472      2474      2477
      2474      2477      2480      2481      2474      2477      2480      2482
      2474      2477      2480      2483      2475      2474      2477      2478
      2475      2474      2477      2479      2475      2474      2477      2480
      2476      2474      2477      2478      2476      2474      2477      2479
      2476      2474      2477      2480      2477      2480      2483      2484
      2477      2480      2483      2485      2477      2480      2483      2486
      2478      2477      2480      2481      2478      2477      2480      2482
      2478      2477      2480      2483      2479      2477      2480      2481
      2479      2477      2480      2482      2479      2477      2480      2483
      2480      2483      2486      2487      2480      2483      2486      2488
      2480      2483      2486      2489      2481      2480      2483      2484
      2481      2480      2483      2485      2481      2480      2483      2486
      2482      2480      2483      2484      2482      2480      2483      2485
      2482      2480      2483      2486      2484      2483      2486      2487
      2484      2483      2486      2488      2484      2483      2486      2489
      2485      2483      2486      2487      2485      2483      2486      2488
      2485      2483      2486      2489      2490      2493      2496      2497
      2490      2493      2496      2498      2490      2493      2496      2499
      2491      2490      2493      2494      2491      2490      2493      2495
      2491      2490      2493      2496      2492      2490      2493      2494
      2492      2490      2493      2495      2492      2490      2493      2496
      2493      2496      2499      2500      2493      2496      2499      2501
      2493      2496      2499      2502      2494      2493      2496      2497
      2494      2493      2496      2498      2494      2493      2496      2499
      2495      2493      2496      2497      2495      2493      2496      2498
      2495      2493      2496      2499      2496      2499      2502      2503
      2496      2499      2502      2504      2496      2499      2502      2505
      2497      2496      2499      2500      2497      2496      2499      2501
      2497      2496      2499      2502      2498      2496      2499      2500
      2498      2496      2499      2501      2498      2496      2499      2502
      2499      2502      2505      2506      2499      2502      2505      2507
      2499      2502      2505      2508      2500      2499      2502      2503
      2500      2499      2502      2504      2500      2499      2502      2505
      2501      2499      2502      2503      2501      2499      2502      2504
      2501      2499      2502      2505      2502      2505      2508      2509
      2502      2505      2508      2510      2502      2505      2508      2511
      2503      2502      2505      2506      2503      2502      2505      2507
      2503      2502      2505      2508      2504      2502      2505      2506
      2504      2502      2505      2507      2504      2502      2505      2508
      2505      2508      2511      2512      2505      2508      2511      2513
      2505      2508      2511      2514      2506      2505      2508      2509
      2506      2505      2508      2510      2506      2505      2508      2511
      2507      2505      2508      2509      2507      2505      2508      2510
      2507      2505      2508      2511      2508      2511      2514      2515
      2508      2511      2514      2516      2508      2511      2514      2517
      2509      2508      2511      2512      2509      2508      2511      2513
      2509      2508      2511      2514      2510      2508      2511      2512
      2510      2508      2511      2513      2510      2508      2511      2514
      2511      2514      2517      2518      2511      2514      2517      2519
      2511      2514      2517      2520      2512      2511      2514      2515
      2512      2511      2514      2516      2512      2511      2514      2517
      2513      2511      2514      2515      2513      2511      2514      2516
      2513      2511      2514      2517      2514      2517      2520      2521
      2514      2517      2520      2522      2514      2517      2520      2523
      2515      2514      2517      2518      2515      2514      2517      2519
      2515      2514      2517      2520      2516      2514      2517      2518
      2516      2514      2517      2519      2516      2514      2517      2520
      2517      2520      2523      2524      2517      2520      2523      2525
      2517      2520      2523      2526      2518      2517      2520      2521
      2518      2517      2520      2522      2518      2517      2520      2523
      2519      2517      2520      2521      2519      2517      2520      2522
      2519      2517      2520      2523      2520      2523      2526      2527
      2520      2523      2526      2528      2520      2523      2526      2529
      2521      2520      2523      2524      2521      2520      2523      2525
      2521      2520      2523      2526      2522      2520      2523      2524
      2522      2520      2523      2525      2522      2520      2523      2526
      2523      2526      2529      2530      2523      2526      2529      2531
      2523      2526      2529      2532      2524      2523      2526      2527
      2524      2523      2526      2528      2524      2523      2526      2529
      2525      2523      2526      2527      2525      2523      2526      2528
      2525      2523      2526      2529      2526      2529      2532      2533
      2526      2529      2532      2534      2526      2529      2532      2535
      2527      2526      2529      2530      2527      2526      2529      2531
      2527      2526      2529      2532      2528      2526      2529      2530
      2528      2526      2529      2531      2528      2526      2529      2532
      2529      2532      2535      2536      2529      2532      2535      2537
      2529      2532      2535      2538      2530      2529      2532      2533
      2530      2529      2532      2534      2530      2529      2532      2535
      2531      2529      2532      2533      2531      2529      2532      2534
      2531      2529      2532      2535      2533      2532      2535      2536
      2533      2532      2535      2537      2533      2532      2535      2538
      2534      2532      2535      2536      2534      2532      2535      2537
      2534      2532      2535      2538      2539      2543      2546      2547
      2539      2543      2546      2577      2539      2585      2582      2577
      2539      2585      2582      2583      2539      2585      2582      2584
      2540      2539      2541      2542      2540      2539      2543      2544
      2540      2539      2543      2545      2540      2539      2543      2546
      2540      2539      2585      2582      2540      2539      2585      2586
      2540      2539      2585      2587      2541      2539      2543      2544
      2541      2539      2543      2545      2541      2539      2543      2546
      2541      2539      2585      2582      2541      2539      2585      2586
      2541      2539      2585      2587      2542      2541      2539      2543
      2542      2541      2539      2585      2543      2539      2585      2582
      2543      2539      2585      2586      2543      2539      2585      2587
      2543      2546      2547      2548      2543      2546      2547      2549
      2543      2546      2577      2575      2543      2546      2577      2578
      2543      2546      2577      2582      2544      2543      2539      2585
      2544      2543      2546      2547      2544      2543      2546      2577
      2545      2543      2539      2585      2545      2543      2546      2547
      2545      2543      2546      2577      2546      2543      2539      2585
      2546      2547      2549      2550      2546      2547      2549      2551
      2546      2547      2549      2552      2546      2577      2575      2552
      2546      2577      2575      2572      2546      2577      2575      2576
      2546      2577      2578      2579      2546      2577      2578      2580
      2546      2577      2578      2581      2546      2577      2582      2583
      2546      2577      2582      2584      2546      2577      2582      2585
      2547      2546      2577      2575      2547      2546      2577      2578
      2547      2546      2577      2582      2547      2549      2552      2553
      2547      2549      2552      2554      2547      2549      2552      2575
      2548      2547      2546      2577      2548      2547      2549      2550
      2548      2547      2549      2551      2548      2547      2549      2552
      2549      2547      2546      2577      2549      2552      2554      2555
      2549      2552      2554      2556      2549      2552      2554      2564
      2549      2552      2575      2572      2549      2552      2575      2576
      2549      2552      2575      2577      2550      2549      2552      2553
      2550      2549      2552      2554      2550      2549      2552      2575
      2551      2549      2552      2553      2551      2549      2552      2554
      2551      2549      2552      2575      2552      2554      2556      2557
      2552      2554      2556      2558      2552      2554      2556      2559
      2552      2554      2564      2562      2552      2554      2564      2565
      2552      2554      2564      2569      2552      2575      2572      2569
      2552      2575      2572      2573      2552      2575      2572      2574
      2552      2575      2577      2578      2552      2575      2577      2582
      2553      2552      2554      2555      2553      2552      2554      2556
      2553      2552      2554      2564      2553      2552      2575      2572
      2553      2552      2575      2576      2553      2552      2575      2577
      2554      2552      2575      2572      2554      2552      2575      2576
      2554      2552      2575      2577      2554      2556      2559      2560
      2554      2556      2559      2561      2554      2556      2559      2562
      2554      2564      2562      2559      2554      2564      2562      2563
      2554      2564      2562      2588      2554      2564      2565      2566
      2554      2564      2565      2567      2554      2564      2565      2568
      2554      2564      2569      2570      2554      2564      2569      2571
      2554      2564      2569      2572      2555      2554      2552      2575
      2555      2554      2556      2557      2555      2554      2556      2558
      2555      2554      2556      2559      2555      2554      2564      2562
      2555      2554      2564      2565      2555      2554      2564      2569
      2556      2554      2552      2575      2556      2554      2564      2562
      2556      2554      2564      2565      2556      2554      2564      2569
      2556      2559      2562      2563      2556      2559      2562      2564
      2556      2559      2562      2588      2557      2556      2554      2564
      2557      2556      2559      2560      2557      2556      2559      2561
      2557      2556      2559      2562      2558      2556      2554      2564
      2558      2556      2559      2560      2558      2556      2559      2561
      2558      2556      2559      2562      2559      2556      2554      2564
      2559      2562      2564      2565      2559      2562      2564      2569
      2559      2562      2588      2589      2559      2562      2588      2590
      2559      2562      2588      2594      2560      2559      2562      2563
      2560      2559      2562      2564      2560      2559      2562      2588
      2561      2559      2562      2563      2561      2559      2562      2564
      2561      2559      2562      2588      2562      2564      2565      2566
      2562      2564      2565      2567      2562      2564      2565      2568
      2562      2564      2569      2570      2562      2564      2569      2571
      2562      2564      2569      2572      2562      2588      2590      2591
      2562      2588      2590      2592      2562      2588      2590      2593
      2562      2588      2594      2595      2562      2588      2594      2596
      2562      2588      2594      2597      2563      2562      2564      2565
      2563      2562      2564      2569      2563      2562      2588      2589
      2563      2562      2588      2590      2563      2562      2588      2594
      2564      2554      2552      2575      2564      2562      2588      2589
      2564      2562      2588      2590      2564      2562      2588      2594
      2564      2569      2572      2573      2564      2569      2572      2574
      2564      2569      2572      2575      2565      2564      2562      2588
      2565      2564      2569      2570      2565      2564      2569      2571
      2565      2564      2569      2572      2566      2565      2564      2569
      2567      2565      2564      2569      2568      2565      2564      2569
      2569      2564      2562      2588      2569      2572      2575      2576
      2569      2572      2575      2577      2570      2569      2572      2573
      2570      2569      2572      2574      2570      2569      2572      2575
      2571      2569      2572      2573      2571      2569      2572      2574
      2571      2569      2572      2575      2572      2575      2577      2578
      2572      2575      2577      2582      2573      2572      2575      2576
      2573      2572      2575      2577      2574      2572      2575      2576
      2574      2572      2575      2577      2575      2577      2578      2579
      2575      2577      2578      2580      2575      2577      2578      2581
      2575      2577      2582      2583      2575      2577      2582      2584
      2575      2577      2582      2585      2576      2575      2577      2578
      2576      2575      2577      2582      2577      2582      2585      2586
      2577      2582      2585      2587      2578      2577      2582      2583
      2578      2577      2582      2584      2578      2577      2582      2585
      2579      2578      2577      2582      2580      2578      2577      2582
      2581      2578      2577      2582      2583      2582      2585      2586
      2583      2582      2585      2587      2584      2582      2585      2586
      2584      2582      2585      2587      2588      2594      2597      2598
      2588      2594      2597      2599      2588      2594      2597      2600
      2589      2588      2590      2591      2589      2588      2590      2592
      2589      2588      2590      2593      2589      2588      2594      2595
      2589      2588      2594      2596      2589      2588      2594      2597
      2590      2588      2594      2595      2590      2588      2594      2596
      2590      2588      2594      2597      2591      2590      2588      2594
      2592      2590      2588      2594      2593      2590      2588      2594
      2594      2597      2600      2601      2594      2597      2600      2602
      2594      2597      2600      2603      2595      2594      2597      2598
      2595      2594      2597      2599      2595      2594      2597      2600
      2596      2594      2597      2598      2596      2594      2597      2599
      2596      2594      2597      2600      2597      2600      2603      2604
      2597      2600      2603      2605      2597      2600      2603      2609
      2598      2597      2600      2601      2598      2597      2600      2602
      2598      2597      2600      2603      2599      2597      2600      2601
      2599      2597      2600      2602      2599      2597      2600      2603
      2600      2603      2605      2606      2600      2603      2605      2607
      2600      2603      2605      2608      2600      2603      2609      2610
      2600      2603      2609      2611      2600      2603      2609      2612
      2601      2600      2603      2604      2601      2600      2603      2605
      2601      2600      2603      2609      2602      2600      2603      2604
      2602      2600      2603      2605      2602      2600      2603      2609
      2604      2603      2605      2606      2604      2603      2605      2607
      2604      2603      2605      2608      2604      2603      2609      2610
      2604      2603      2609      2611      2604      2603      2609      2612
      2605      2603      2609      2610      2605      2603      2609      2611
      2605      2603      2609      2612      2606      2605      2603      2609
      2607      2605      2603      2609      2608      2605      2603      2609
      2613      2614      2629      2630      2613      2614      2629      2631
      2613      2614      2629      2635      2614      2613      2617      2618
      2614      2613      2617      2619      2614      2613      2617      2620
      2614      2613      2621      2622      2614      2613      2621      2623
      2614      2613      2621      2624      2614      2613      2625      2626
      2614      2613      2625      2627      2614      2613      2625      2628
      2614      2629      2635      2632      2615      2614      2613      2617
      2615      2614      2613      2621      2615      2614      2613      2625
      2615      2614      2629      2630      2615      2614      2629      2631
      2615      2614      2629      2635      2616      2614      2613      2617
      2616      2614      2613      2621      2616      2614      2613      2625
      2616      2614      2629      2630      2616      2614      2629      2631
      2616      2614      2629      2635      2617      2613      2614      2629
      2617      2613      2621      2622      2617      2613      2621      2623
      2617      2613      2621      2624      2617      2613      2625      2626
      2617      2613      2625      2627      2617      2613      2625      2628
      2618      2617      2613      2621      2618      2617      2613      2625
      2619      2617      2613      2621      2619      2617      2613      2625
      2620      2617      2613      2621      2620      2617      2613      2625
      2621      2613      2614      2629      2621      2613      2625      2626
      2621      2613      2625      2627      2621      2613      2625      2628
      2622      2621      2613      2625      2623      2621      2613      2625
      2624      2621      2613      2625      2625      2613      2614      2629
      2629      2635      2632      2633      2629      2635      2632      2634
      2629      2635      2632      2636      2630      2629      2635      2632
      2631      2629      2635      2632      2632      2636      2637      2638
      2632      2636      2637      2639      2632      2636      2637      2640
      2633      2632      2636      2637      2634      2632      2636      2637
      2635      2632      2636      2637      2636      2637      2640      2641
      2636      2637      2640      2642      2636      2637      2640      2648
      2637      2640      2642      2643      2637      2640      2648      2649
      2637      2640      2648      2650      2637      2640      2648      2651
      2638      2637      2640      2641      2638      2637      2640      2642
      2638      2637      2640      2648      2639      2637      2640      2641
      2639      2637      2640      2642      2639      2637      2640      2648
      2640      2642      2643      2644      2640      2642      2643      2645
      2640      2648      2651      2652      2641      2640      2642      2643
      2641      2640      2648      2649      2641      2640      2648      2650
      2641      2640      2648      2651      2642      2640      2648      2649
      2642      2640      2648      2650      2642      2640      2648      2651
      2642      2643      2645      2646      2642      2643      2645      2647
      2642      2643      2645      2657      2643      2642      2640      2648
      2643      2645      2657      2658      2643      2645      2657      2659
      2643      2645      2657      2660      2644      2643      2645      2646
      2644      2643      2645      2647      2644      2643      2645      2657
      2645      2657      2660      2661      2645      2657      2660      2662
      2645      2657      2660      2663      2646      2645      2657      2658
      2646      2645      2657      2659      2646      2645      2657      2660
      2647      2645      2657      2658      2647      2645      2657      2659
      2647      2645      2657      2660      2648      2651      2652      2653
      2648      2651      2652      2654      2649      2648      2651      2652
      2650      2648      2651      2652      2651      2652      2654      2655
      2651      2652      2654      2656      2651      2652      2654      2704
      2652      2654      2704      2705      2652      2654      2704      2706
      2652      2654      2704      2707      2653      2652      2654      2655
      2653      2652      2654      2656      2653      2652      2654      2704
      2654      2704      2707      2708      2654      2704      2707      2709
      2654      2704      2707      2710      2655      2654      2704      2705
      2655      2654      2704      2706      2655      2654      2704      2707
      2656      2654      2704      2705      2656      2654      2704      2706
      2656      2654      2704      2707      2657      2660      2663      2664
      2657      2660      2663      2665      2658      2657      2660      2661
      2658      2657      2660      2662      2658      2657      2660      2663
      2659      2657      2660      2661      2659      2657      2660      2662
      2659      2657      2660      2663      2660      2663      2665      2666
      2660      2663      2665      2667      2661      2660      2663      2664
      2661      2660      2663      2665      2662      2660      2663      2664
      2662      2660      2663      2665      2663      2665      2667      2668
      2663      2665      2667      2669      2663      2665      2667      2670
      2664      2663      2665      2666      2664      2663      2665      2667
      2665      2667      2670      2671      2665      2667      2670      2672
      2666      2665      2667      2668      2666      2665      2667      2669
      2666      2665      2667      2670      2667      2670      2672      2673
      2667      2670      2672      2674      2668      2667      2670      2671
      2668      2667      2670      2672      2669      2667      2670      2671
      2669      2667      2670      2672      2670      2672      2674      2675
      2670      2672      2674      2676      2670      2672      2674      2677
      2671      2670      2672      2673      2671      2670      2672      2674
      2672      2674      2677      2678      2672      2674      2677      2679
      2673      2672      2674      2675      2673      2672      2674      2676
      2673      2672      2674      2677      2674      2677      2679      2680
      2674      2677      2679      2681      2675      2674      2677      2678
      2675      2674      2677      2679      2676      2674      2677      2678
      2676      2674      2677      2679      2677      2679      2681      2682
      2677      2679      2681      2683      2677      2679      2681      2684
      2678      2677      2679      2680      2678      2677      2679      2681
      2679      2681      2684      2685      2679      2681      2684      2686
      2680      2679      2681      2682      2680      2679      2681      2683
      2680      2679      2681      2684      2681      2684      2686      2687
      2681      2684      2686      2688      2682      2681      2684      2685
      2682      2681      2684      2686      2683      2681      2684      2685
      2683      2681      2684      2686      2684      2686      2688      2689
      2684      2686      2688      2690      2684      2686      2688      2691
      2685      2684      2686      2687      2685      2684      2686      2688
      2686      2688      2691      2692      2686      2688      2691      2693
      2686      2688      2691      2694      2687      2686      2688      2689
      2687      2686      2688      2690      2687      2686      2688      2691
      2688      2691      2694      2695      2688      2691      2694      2696
      2688      2691      2694      2697      2689      2688      2691      2692
      2689      2688      2691      2693      2689      2688      2691      2694
      2690      2688      2691      2692      2690      2688      2691      2693
      2690      2688      2691      2694      2691      2694      2697      2698
      2691      2694      2697      2699      2691      2694      2697      2700
      2692      2691      2694      2695      2692      2691      2694      2696
      2692      2691      2694      2697      2693      2691      2694      2695
      2693      2691      2694      2696      2693      2691      2694      2697
      2694      2697      2700      2701      2694      2697      2700      2702
      2694      2697      2700      2703      2695      2694      2697      2698
      2695      2694      2697      2699      2695      2694      2697      2700
      2696      2694      2697      2698      2696      2694      2697      2699
      2696      2694      2697      2700      2698      2697      2700      2701
      2698      2697      2700      2702      2698      2697      2700      2703
      2699      2697      2700      2701      2699      2697      2700      2702
      2699      2697      2700      2703      2704      2707      2710      2711
      2704      2707      2710      2712      2704      2707      2710      2713
      2705      2704      2707      2708      2705      2704      2707      2709
      2705      2704      2707      2710      2706      2704      2707      2708
      2706      2704      2707      2709      2706      2704      2707      2710
      2707      2710      2713      2714      2707      2710      2713      2715
      2707      2710      2713      2716      2708      2707      2710      2711
      2708      2707      2710      2712      2708      2707      2710      2713
      2709      2707      2710      2711      2709      2707      2710      2712
      2709      2707      2710      2713      2710      2713      2716      2717
      2710      2713      2716      2718      2710      2713      2716      2719
      2711      2710      2713      2714      2711      2710      2713      2715
      2711      2710      2713      2716      2712      2710      2713      2714
      2712      2710      2713      2715      2712      2710      2713      2716
      2713      2716      2719      2720      2713      2716      2719      2721
      2713      2716      2719      2722      2714      2713      2716      2717
      2714      2713      2716      2718      2714      2713      2716      2719
      2715      2713      2716      2717      2715      2713      2716      2718
      2715      2713      2716      2719      2716      2719      2722      2723
      2716      2719      2722      2724      2716      2719      2722      2725
      2717      2716      2719      2720      2717      2716      2719      2721
      2717      2716      2719      2722      2718      2716      2719      2720
      2718      2716      2719      2721      2718      2716      2719      2722
      2719      2722      2725      2726      2719      2722      2725      2727
      2719      2722      2725      2728      2720      2719      2722      2723
      2720      2719      2722      2724      2720      2719      2722      2725
      2721      2719      2722      2723      2721      2719      2722      2724
      2721      2719      2722      2725      2722      2725      2728      2729
      2722      2725      2728      2730      2722      2725      2728      2731
      2723      2722      2725      2726      2723      2722      2725      2727
      2723      2722      2725      2728      2724      2722      2725      2726
      2724      2722      2725      2727      2724      2722      2725      2728
      2725      2728      2731      2732      2725      2728      2731      2733
      2725      2728      2731      2734      2726      2725      2728      2729
      2726      2725      2728      2730      2726      2725      2728      2731
      2727      2725      2728      2729      2727      2725      2728      2730
      2727      2725      2728      2731      2728      2731      2734      2735
      2728      2731      2734      2736      2728      2731      2734      2737
      2729      2728      2731      2732      2729      2728      2731      2733
      2729      2728      2731      2734      2730      2728      2731      2732
      2730      2728      2731      2733      2730      2728      2731      2734
      2731      2734      2737      2738      2731      2734      2737      2739
      2731      2734      2737      2740      2732      2731      2734      2735
      2732      2731      2734      2736      2732      2731      2734      2737
      2733      2731      2734      2735      2733      2731      2734      2736
      2733      2731      2734      2737      2734      2737      2740      2741
      2734      2737      2740      2742      2734      2737      2740      2743
      2735      2734      2737      2738      2735      2734      2737      2739
      2735      2734      2737      2740      2736      2734      2737      2738
      2736      2734      2737      2739      2736      2734      2737      2740
      2737      2740      2743      2744      2737      2740      2743      2745
      2737      2740      2743      2746      2738      2737      2740      2741
      2738      2737      2740      2742      2738      2737      2740      2743
      2739      2737      2740      2741      2739      2737      2740      2742
      2739      2737      2740      2743      2740      2743      2746      2747
      2740      2743      2746      2748      2740      2743      2746      2749
      2741      2740      2743      2744      2741      2740      2743      2745
      2741      2740      2743      2746      2742      2740      2743      2744
      2742      2740      2743      2745      2742      2740      2743      2746
      2743      2746      2749      2750      2743      2746      2749      2751
      2743      2746      2749      2752      2744      2743      2746      2747
      2744      2743      2746      2748      2744      2743      2746      2749
      2745      2743      2746      2747      2745      2743      2746      2748
      2745      2743      2746      2749      2747      2746      2749      2750
      2747      2746      2749      2751      2747      2746      2749      2752
      2748      2746      2749      2750      2748      2746      2749      2751
      2748      2746      2749      2752      2753      2757      2760      2761
      2753      2757      2760      2791      2753      2799      2796      2791
      2753      2799      2796      2797      2753      2799      2796      2798
      2754      2753      2755      2756      2754      2753      2757      2758
      2754      2753      2757      2759      2754      2753      2757      2760
      2754      2753      2799      2796      2754      2753      2799      2800
      2754      2753      2799      2801      2755      2753      2757      2758
      2755      2753      2757      2759      2755      2753      2757      2760
      2755      2753      2799      2796      2755      2753      2799      2800
      2755      2753      2799      2801      2756      2755      2753      2757
      2756      2755      2753      2799      2757      2753      2799      2796
      2757      2753      2799      2800      2757      2753      2799      2801
      2757      2760      2761      2762      2757      2760      2761      2763
      2757      2760      2791      2789      2757      2760      2791      2792
      2757      2760      2791      2796      2758      2757      2753      2799
      2758      2757      2760      2761      2758      2757      2760      2791
      2759      2757      2753      2799      2759      2757      2760      2761
      2759      2757      2760      2791      2760      2757      2753      2799
      2760      2761      2763      2764      2760      2761      2763      2765
      2760      2761      2763      2766      2760      2791      2789      2766
      2760      2791      2789      2786      2760      2791      2789      2790
      2760      2791      2792      2793      2760      2791      2792      2794
      2760      2791      2792      2795      2760      2791      2796      2797
      2760      2791      2796      2798      2760      2791      2796      2799
      2761      2760      2791      2789      2761      2760      2791      2792
      2761      2760      2791      2796      2761      2763      2766      2767
      2761      2763      2766      2768      2761      2763      2766      2789
      2762      2761      2760      2791      2762      2761      2763      2764
      2762      2761      2763      2765      2762      2761      2763      2766
      2763      2761      2760      2791      2763      2766      2768      2769
      2763      2766      2768      2770      2763      2766      2768      2778
      2763      2766      2789      2786      2763      2766      2789      2790
      2763      2766      2789      2791      2764      2763      2766      2767
      2764      2763      2766      2768      2764      2763      2766      2789
      2765      2763      2766      2767      2765      2763      2766      2768
      2765      2763      2766      2789      2766      2768      2770      2771
      2766      2768      2770      2772      2766      2768      2770      2773
      2766      2768      2778      2776      2766      2768      2778      2779
      2766      2768      2778      2783      2766      2789      2786      2783
      2766      2789      2786      2787      2766      2789      2786      2788
      2766      2789      2791      2792      2766      2789      2791      2796
      2767      2766      2768      2769      2767      2766      2768      2770
      2767      2766      2768      2778      2767      2766      2789      2786
      2767      2766      2789      2790      2767      2766      2789      2791
      2768      2766      2789      2786      2768      2766      2789      2790
      2768      2766      2789      2791      2768      2770      2773      2774
      2768      2770      2773      2775      2768      2770      2773      2776
      2768      2778      2776      2773      2768      2778      2776      2777
      2768      2778      2776      2802      2768      2778      2779      2780
      2768      2778      2779      2781      2768      2778      2779      2782
      2768      2778      2783      2784      2768      2778      2783      2785
      2768      2778      2783      2786      2769      2768      2766      2789
      2769      2768      2770      2771      2769      2768      2770      2772
      2769      2768      2770      2773      2769      2768      2778      2776
      2769      2768      2778      2779      2769      2768      2778      2783
      2770      2768      2766      2789      2770      2768      2778      2776
      2770      2768      2778      2779      2770      2768      2778      2783
      2770      2773      2776      2777      2770      2773      2776      2778
      2770      2773      2776      2802      2771      2770      2768      2778
      2771      2770      2773      2774      2771      2770      2773      2775
      2771      2770      2773      2776      2772      2770      2768      2778
      2772      2770      2773      2774      2772      2770      2773      2775
      2772      2770      2773      2776      2773      2770      2768      2778
      2773      2776      2778      2779      2773      2776      2778      2783
      2773      2776      2802      2803      2773      2776      2802      2804
      2773      2776      2802      2808      2774      2773      2776      2777
      2774      2773      2776      2778      2774      2773      2776      2802
      2775      2773      2776      2777      2775      2773      2776      2778
      2775      2773      2776      2802      2776      2778      2779      2780
      2776      2778      2779      2781      2776      2778      2779      2782
      2776      2778      2783      2784      2776      2778      2783      2785
      2776      2778      2783      2786      2776      2802      2804      2805
      2776      2802      2804      2806      2776      2802      2804      2807
      2776      2802      2808      2809      2776      2802      2808      2810
      2776      2802      2808      2811      2777      2776      2778      2779
      2777      2776      2778      2783      2777      2776      2802      2803
      2777      2776      2802      2804      2777      2776      2802      2808
      2778      2768      2766      2789      2778      2776      2802      2803
      2778      2776      2802      2804      2778      2776      2802      2808
      2778      2783      2786      2787      2778      2783      2786      2788
      2778      2783      2786      2789      2779      2778      2776      2802
      2779      2778      2783      2784      2779      2778      2783      2785
      2779      2778      2783      2786      2780      2779      2778      2783
      2781      2779      2778      2783      2782      2779      2778      2783
      2783      2778      2776      2802      2783      2786      2789      2790
      2783      2786      2789      2791      2784      2783      2786      2787
      2784      2783      2786      2788      2784      2783      2786      2789
      2785      2783      2786      2787      2785      2783      2786      2788
      2785      2783      2786      2789      2786      2789      2791      2792
      2786      2789      2791      2796      2787      2786      2789      2790
      2787      2786      2789      2791      2788      2786      2789      2790
      2788      2786      2789      2791      2789      2791      2792      2793
      2789      2791      2792      2794      2789      2791      2792      2795
      2789      2791      2796      2797      2789      2791      2796      2798
      2789      2791      2796      2799      2790      2789      2791      2792
      2790      2789      2791      2796      2791      2796      2799      2800
      2791      2796      2799      2801      2792      2791      2796      2797
      2792      2791      2796      2798      2792      2791      2796      2799
      2793      2792      2791      2796      2794      2792      2791      2796
      2795      2792      2791      2796      2797      2796      2799      2800
      2797      2796      2799      2801      2798      2796      2799      2800
      2798      2796      2799      2801      2802      2808      2811      2812
      2802      2808      2811      2813      2802      2808      2811      2814
      2803      2802      2804      2805      2803      2802      2804      2806
      2803      2802      2804      2807      2803      2802      2808      2809
      2803      2802      2808      2810      2803      2802      2808      2811
      2804      2802      2808      2809      2804      2802      2808      2810
      2804      2802      2808      2811      2805      2804      2802      2808
      2806      2804      2802      2808      2807      2804      2802      2808
      2808      2811      2814      2815      2808      2811      2814      2816
      2808      2811      2814      2817      2809      2808      2811      2812
      2809      2808      2811      2813      2809      2808      2811      2814
      2810      2808      2811      2812      2810      2808      2811      2813
      2810      2808      2811      2814      2811      2814      2817      2818
      2811      2814      2817      2819      2811      2814      2817      2823
      2812      2811      2814      2815      2812      2811      2814      2816
      2812      2811      2814      2817      2813      2811      2814      2815
      2813      2811      2814      2816      2813      2811      2814      2817
      2814      2817      2819      2820      2814      2817      2819      2821
      2814      2817      2819      2822      2814      2817      2823      2824
      2814      2817      2823      2825      2814      2817      2823      2826
      2815      2814      2817      2818      2815      2814      2817      2819
      2815      2814      2817      2823      2816      2814      2817      2818
      2816      2814      2817      2819      2816      2814      2817      2823
      2818      2817      2819      2820      2818      2817      2819      2821
      2818      2817      2819      2822      2818      2817      2823      2824
      2818      2817      2823      2825      2818      2817      2823      2826
      2819      2817      2823      2824      2819      2817      2823      2825
      2819      2817      2823      2826      2820      2819      2817      2823
      2821      2819      2817      2823      2822      2819      2817      2823
      2827      2831      2833      2834      2827      2831      2835      2836
      2827      2831      2835      2837      2827      2831      2835      2839
      2827      2847      2843      2839      2827      2847      2843      2844
      2827      2847      2843      2845      2827      2847      2852      2849
      2828      2827      2829      2830      2828      2827      2831      2832
      2828      2827      2831      2833      2828      2827      2831      2835
      2828      2827      2847      2843      2828      2827      2847      2848
      2828      2827      2847      2852      2829      2827      2831      2832
      2829      2827      2831      2833      2829      2827      2831      2835
      2829      2827      2847      2843      2829      2827      2847      2848
      2829      2827      2847      2852      2830      2829      2827      2831
      2830      2829      2827      2847      2831      2827      2847      2843
      2831      2827      2847      2848      2831      2827      2847      2852
      2831      2835      2837      2838      2831      2835      2839      2840
      2831      2835      2839      2841      2831      2835      2839      2843
      2832      2831      2827      2847      2832      2831      2833      2834
      2832      2831      2835      2836      2832      2831      2835      2837
      2832      2831      2835      2839      2833      2831      2827      2847
      2833      2831      2835      2836      2833      2831      2835      2837
      2833      2831      2835      2839      2834      2833      2831      2835
      2835      2831      2827      2847      2835      2839      2841      2842
      2835      2839      2843      2844      2835      2839      2843      2845
      2835      2839      2843      2847      2836      2835      2837      2838
      2836      2835      2839      2840      2836      2835      2839      2841
      2836      2835      2839      2843      2837      2835      2839      2840
      2837      2835      2839      2841      2837      2835      2839      2843
      2838      2837      2835      2839      2839      2843      2845      2846
      2839      2843      2847      2848      2839      2843      2847      2852
      2840      2839      2841      2842      2840      2839      2843      2844
      2840      2839      2843      2845      2840      2839      2843      2847
      2841      2839      2843      2844      2841      2839      2843      2845
      2841      2839      2843      2847      2842      2841      2839      2843
      2843      2847      2852      2849      2844      2843      2845      2846
      2844      2843      2847      2848      2844      2843      2847      2852
      2845      2843      2847      2848      2845      2843      2847      2852
      2846      2845      2843      2847      2847      2852      2849      2850
      2847      2852      2849      2851      2847      2852      2849      2853
      2848      2847      2852      2849      2849      2853      2854      2855
      2849      2853      2854      2856      2849      2853      2854      2857
      2850      2849      2853      2854      2851      2849      2853      2854
      2852      2849      2853      2854      2853      2854      2857      2858
      2853      2854      2857      2859      2853      2854      2857      2865
      2854      2857      2859      2860      2854      2857      2865      2866
      2854      2857      2865      2867      2854      2857      2865      2868
      2855      2854      2857      2858      2855      2854      2857      2859
      2855      2854      2857      2865      2856      2854      2857      2858
      2856      2854      2857      2859      2856      2854      2857      2865
      2857      2859      2860      2861      2857      2859      2860      2862
      2857      2865      2868      2869      2858      2857      2859      2860
      2858      2857      2865      2866      2858      2857      2865      2867
      2858      2857      2865      2868      2859      2857      2865      2866
      2859      2857      2865      2867      2859      2857      2865      2868
      2859      2860      2862      2863      2859      2860      2862      2864
      2859      2860      2862      2874      2860      2859      2857      2865
      2860      2862      2874      2875      2860      2862      2874      2876
      2860      2862      2874      2877      2861      2860      2862      2863
      2861      2860      2862      2864      2861      2860      2862      2874
      2862      2874      2877      2878      2862      2874      2877      2879
      2862      2874      2877      2880      2863      2862      2874      2875
      2863      2862      2874      2876      2863      2862      2874      2877
      2864      2862      2874      2875      2864      2862      2874      2876
      2864      2862      2874      2877      2865      2868      2869      2870
      2865      2868      2869      2871      2866      2865      2868      2869
      2867      2865      2868      2869      2868      2869      2871      2872
      2868      2869      2871      2873      2868      2869      2871      2921
      2869      2871      2921      2922      2869      2871      2921      2923
      2869      2871      2921      2924      2870      2869      2871      2872
      2870      2869      2871      2873      2870      2869      2871      2921
      2871      2921      2924      2925      2871      2921      2924      2926
      2871      2921      2924      2927      2872      2871      2921      2922
      2872      2871      2921      2923      2872      2871      2921      2924
      2873      2871      2921      2922      2873      2871      2921      2923
      2873      2871      2921      2924      2874      2877      2880      2881
      2874      2877      2880      2882      2875      2874      2877      2878
      2875      2874      2877      2879      2875      2874      2877      2880
      2876      2874      2877      2878      2876      2874      2877      2879
      2876      2874      2877      2880      2877      2880      2882      2883
      2877      2880      2882      2884      2878      2877      2880      2881
      2878      2877      2880      2882      2879      2877      2880      2881
      2879      2877      2880      2882      2880      2882      2884      2885
      2880      2882      2884      2886      2880      2882      2884      2887
      2881      2880      2882      2883      2881      2880      2882      2884
      2882      2884      2887      2888      2882      2884      2887      2889
      2883      2882      2884      2885      2883      2882      2884      2886
      2883      2882      2884      2887      2884      2887      2889      2890
      2884      2887      2889      2891      2885      2884      2887      2888
      2885      2884      2887      2889      2886      2884      2887      2888
      2886      2884      2887      2889      2887      2889      2891      2892
      2887      2889      2891      2893      2887      2889      2891      2894
      2888      2887      2889      2890      2888      2887      2889      2891
      2889      2891      2894      2895      2889      2891      2894      2896
      2890      2889      2891      2892      2890      2889      2891      2893
      2890      2889      2891      2894      2891      2894      2896      2897
      2891      2894      2896      2898      2892      2891      2894      2895
      2892      2891      2894      2896      2893      2891      2894      2895
      2893      2891      2894      2896      2894      2896      2898      2899
      2894      2896      2898      2900      2894      2896      2898      2901
      2895      2894      2896      2897      2895      2894      2896      2898
      2896      2898      2901      2902      2896      2898      2901      2903
      2897      2896      2898      2899      2897      2896      2898      2900
      2897      2896      2898      2901      2898      2901      2903      2904
      2898      2901      2903      2905      2899      2898      2901      2902
      2899      2898      2901      2903      2900      2898      2901      2902
      2900      2898      2901      2903      2901      2903      2905      2906
      2901      2903      2905      2907      2901      2903      2905      2908
      2902      2901      2903      2904      2902      2901      2903      2905
      2903      2905      2908      2909      2903      2905      2908      2910
      2903      2905      2908      2911      2904      2903      2905      2906
      2904      2903      2905      2907      2904      2903      2905      2908
      2905      2908      2911      2912      2905      2908      2911      2913
      2905      2908      2911      2914      2906      2905      2908      2909
      2906      2905      2908      2910      2906      2905      2908      2911
      2907      2905      2908      2909      2907      2905      2908      2910
      2907      2905      2908      2911      2908      2911      2914      2915
      2908      2911      2914      2916      2908      2911      2914      2917
      2909      2908      2911      2912      2909      2908      2911      2913
      2909      2908      2911      2914      2910      2908      2911      2912
      2910      2908      2911      2913      2910      2908      2911      2914
      2911      2914      2917      2918      2911      2914      2917      2919
      2911      2914      2917      2920      2912      2911      2914      2915
      2912      2911      2914      2916      2912      2911      2914      2917
      2913      2911      2914      2915      2913      2911      2914      2916
      2913      2911      2914      2917      2915      2914      2917      2918
      2915      2914      2917      2919      2915      2914      2917      2920
      2916      2914      2917      2918      2916      2914      2917      2919
      2916      2914      2917      2920      2921      2924      2927      2928
      2921      2924      2927      2929      2921      2924      2927      2930
      2922      2921      2924      2925      2922      2921      2924      2926
      2922      2921      2924      2927      2923      2921      2924      2925
      2923      2921      2924      2926      2923      2921      2924      2927
      2924      2927      2930      2931      2924      2927      2930      2932
      2924      2927      2930      2933      2925      2924      2927      2928
      2925      2924      2927      2929      2925      2924      2927      2930
      2926      2924      2927      2928      2926      2924      2927      2929
      2926      2924      2927      2930      2927      2930      2933      2934
      2927      2930      2933      2935      2927      2930      2933      2936
      2928      2927      2930      2931      2928      2927      2930      2932
      2928      2927      2930      2933      2929      2927      2930      2931
      2929      2927      2930      2932      2929      2927      2930      2933
      2930      2933      2936      2937      2930      2933      2936      2938
      2930      2933      2936      2939      2931      2930      2933      2934
      2931      2930      2933      2935      2931      2930      2933      2936
      2932      2930      2933      2934      2932      2930      2933      2935
      2932      2930      2933      2936      2933      2936      2939      2940
      2933      2936      2939      2941      2933      2936      2939      2942
      2934      2933      2936      2937      2934      2933      2936      2938
      2934      2933      2936      2939      2935      2933      2936      2937
      2935      2933      2936      2938      2935      2933      2936      2939
      2936      2939      2942      2943      2936      2939      2942      2944
      2936      2939      2942      2945      2937      2936      2939      2940
      2937      2936      2939      2941      2937      2936      2939      2942
      2938      2936      2939      2940      2938      2936      2939      2941
      2938      2936      2939      2942      2939      2942      2945      2946
      2939      2942      2945      2947      2939      2942      2945      2948
      2940      2939      2942      2943      2940      2939      2942      2944
      2940      2939      2942      2945      2941      2939      2942      2943
      2941      2939      2942      2944      2941      2939      2942      2945
      2942      2945      2948      2949      2942      2945      2948      2950
      2942      2945      2948      2951      2943      2942      2945      2946
      2943      2942      2945      2947      2943      2942      2945      2948
      2944      2942      2945      2946      2944      2942      2945      2947
      2944      2942      2945      2948      2945      2948      2951      2952
      2945      2948      2951      2953      2945      2948      2951      2954
      2946      2945      2948      2949      2946      2945      2948      2950
      2946      2945      2948      2951      2947      2945      2948      2949
      2947      2945      2948      2950      2947      2945      2948      2951
      2948      2951      2954      2955      2948      2951      2954      2956
      2948      2951      2954      2957      2949      2948      2951      2952
      2949      2948      2951      2953      2949      2948      2951      2954
      2950      2948      2951      2952      2950      2948      2951      2953
      2950      2948      2951      2954      2951      2954      2957      2958
      2951      2954      2957      2959      2951      2954      2957      2960
      2952      2951      2954      2955      2952      2951      2954      2956
      2952      2951      2954      2957      2953      2951      2954      2955
      2953      2951      2954      2956      2953      2951      2954      2957
      2954      2957      2960      2961      2954      2957      2960      2962
      2954      2957      2960      2963      2955      2954      2957      2958
      2955      2954      2957      2959      2955      2954      2957      2960
      2956      2954      2957      2958      2956      2954      2957      2959
      2956      2954      2957      2960      2957      2960      2963      2964
      2957      2960      2963      2965      2957      2960      2963      2966
      2958      2957      2960      2961      2958      2957      2960      2962
      2958      2957      2960      2963      2959      2957      2960      2961
      2959      2957      2960      2962      2959      2957      2960      2963
      2960      2963      2966      2967      2960      2963      2966      2968
      2960      2963      2966      2969      2961      2960      2963      2964
      2961      2960      2963      2965      2961      2960      2963      2966
      2962      2960      2963      2964      2962      2960      2963      2965
      2962      2960      2963      2966      2964      2963      2966      2967
      2964      2963      2966      2968      2964      2963      2966      2969
      2965      2963      2966      2967      2965      2963      2966      2968
      2965      2963      2966      2969      2970      2974      2977      2978
      2970      2974      2977      3008      2970      3016      3013      3008
      2970      3016      3013      3014      2970      3016      3013      3015
      2971      2970      2972      2973      2971      2970      2974      2975
      2971      2970      2974      2976      2971      2970      2974      2977
      2971      2970      3016      3013      2971      2970      3016      3017
      2971      2970      3016      3018      2972      2970      2974      2975
      2972      2970      2974      2976      2972      2970      2974      2977
      2972      2970      3016      3013      2972      2970      3016      3017
      2972      2970      3016      3018      2973      2972      2970      2974
      2973      2972      2970      3016      2974      2970      3016      3013
      2974      2970      3016      3017      2974      2970      3016      3018
      2974      2977      2978      2979      2974      2977      2978      2980
      2974      2977      3008      3006      2974      2977      3008      3009
      2974      2977      3008      3013      2975      2974      2970      3016
      2975      2974      2977      2978      2975      2974      2977      3008
      2976      2974      2970      3016      2976      2974      2977      2978
      2976      2974      2977      3008      2977      2974      2970      3016
      2977      2978      2980      2981      2977      2978      2980      2982
      2977      2978      2980      2983      2977      3008      3006      2983
      2977      3008      3006      3003      2977      3008      3006      3007
      2977      3008      3009      3010      2977      3008      3009      3011
      2977      3008      3009      3012      2977      3008      3013      3014
      2977      3008      3013      3015      2977      3008      3013      3016
      2978      2977      3008      3006      2978      2977      3008      3009
      2978      2977      3008      3013      2978      2980      2983      2984
      2978      2980      2983      2985      2978      2980      2983      3006
      2979      2978      2977      3008      2979      2978      2980      2981
      2979      2978      2980      2982      2979      2978      2980      2983
      2980      2978      2977      3008      2980      2983      2985      2986
      2980      2983      2985      2987      2980      2983      2985      2995
      2980      2983      3006      3003      2980      2983      3006      3007
      2980      2983      3006      3008      2981      2980      2983      2984
      2981      2980      2983      2985      2981      2980      2983      3006
      2982      2980      2983      2984      2982      2980      2983      2985
      2982      2980      2983      3006      2983      2985      2987      2988
      2983      2985      2987      2989      2983      2985      2987      2990
      2983      2985      2995      2993      2983      2985      2995      2996
      2983      2985      2995      3000      2983      3006      3003      3000
      2983      3006      3003      3004      2983      3006      3003      3005
      2983      3006      3008      3009      2983      3006      3008      3013
      2984      2983      2985      2986      2984      2983      2985      2987
      2984      2983      2985      2995      2984      2983      3006      3003
      2984      2983      3006      3007      2984      2983      3006      3008
      2985      2983      3006      3003      2985      2983      3006      3007
      2985      2983      3006      3008      2985      2987      2990      2991
      2985      2987      2990      2992      2985      2987      2990      2993
      2985      2995      2993      2990      2985      2995      2993      2994
      2985      2995      2993      3019      2985      2995      2996      2997
      2985      2995      2996      2998      2985      2995      2996      2999
      2985      2995      3000      3001      2985      2995      3000      3002
      2985      2995      3000      3003      2986      2985      2983      3006
      2986      2985      2987      2988      2986      2985      2987      2989
      2986      2985      2987      2990      2986      2985      2995      2993
      2986      2985      2995      2996      2986      2985      2995      3000
      2987      2985      2983      3006      2987      2985      2995      2993
      2987      2985      2995      2996      2987      2985      2995      3000
      2987      2990      2993      2994      2987      2990      2993      2995
      2987      2990      2993      3019      2988      2987      2985      2995
      2988      2987      2990      2991      2988      2987      2990      2992
      2988      2987      2990      2993      2989      2987      2985      2995
      2989      2987      2990      2991      2989      2987      2990      2992
      2989      2987      2990      2993      2990      2987      2985      2995
      2990      2993      2995      2996      2990      2993      2995      3000
      2990      2993      3019      3020      2990      2993      3019      3021
      2990      2993      3019      3025      2991      2990      2993      2994
      2991      2990      2993      2995      2991      2990      2993      3019
      2992      2990      2993      2994      2992      2990      2993      2995
      2992      2990      2993      3019      2993      2995      2996      2997
      2993      2995      2996      2998      2993      2995      2996      2999
      2993      2995      3000      3001      2993      2995      3000      3002
      2993      2995      3000      3003      2993      3019      3021      3022
      2993      3019      3021      3023      2993      3019      3021      3024
      2993      3019      3025      3026      2993      3019      3025      3027
      2993      3019      3025      3028      2994      2993      2995      2996
      2994      2993      2995      3000      2994      2993      3019      3020
      2994      2993      3019      3021      2994      2993      3019      3025
      2995      2985      2983      3006      2995      2993      3019      3020
      2995      2993      3019      3021      2995      2993      3019      3025
      2995      3000      3003      3004      2995      3000      3003      3005
      2995      3000      3003      3006      2996      2995      2993      3019
      2996      2995      3000      3001      2996      2995      3000      3002
      2996      2995      3000      3003      2997      2996      2995      3000
      2998      2996      2995      3000      2999      2996      2995      3000
      3000      2995      2993      3019      3000      3003      3006      3007
      3000      3003      3006      3008      3001      3000      3003      3004
      3001      3000      3003      3005      3001      3000      3003      3006
      3002      3000      3003      3004      3002      3000      3003      3005
      3002      3000      3003      3006      3003      3006      3008      3009
      3003      3006      3008      3013      3004      3003      3006      3007
      3004      3003      3006      3008      3005      3003      3006      3007
      3005      3003      3006      3008      3006      3008      3009      3010
      3006      3008      3009      3011      3006      3008      3009      3012
      3006      3008      3013      3014      3006      3008      3013      3015
      3006      3008      3013      3016      3007      3006      3008      3009
      3007      3006      3008      3013      3008      3013      3016      3017
      3008      3013      3016      3018      3009      3008      3013      3014
      3009      3008      3013      3015      3009      3008      3013      3016
      3010      3009      3008      3013      3011      3009      3008      3013
      3012      3009      3008      3013      3014      3013      3016      3017
      3014      3013      3016      3018      3015      3013      3016      3017
      3015      3013      3016      3018      3019      3025      3028      3029
      3019      3025      3028      3030      3019      3025      3028      3031
      3020      3019      3021      3022      3020      3019      3021      3023
      3020      3019      3021      3024      3020      3019      3025      3026
      3020      3019      3025      3027      3020      3019      3025      3028
      3021      3019      3025      3026      3021      3019      3025      3027
      3021      3019      3025      3028      3022      3021      3019      3025
      3023      3021      3019      3025      3024      3021      3019      3025
      3025      3028      3031      3032      3025      3028      3031      3033
      3025      3028      3031      3034      3026      3025      3028      3029
      3026      3025      3028      3030      3026      3025      3028      3031
      3027      3025      3028      3029      3027      3025      3028      3030
      3027      3025      3028      3031      3028      3031      3034      3035
      3028      3031      3034      3036      3028      3031      3034      3040
      3029      3028      3031      3032      3029      3028      3031      3033
      3029      3028      3031      3034      3030      3028      3031      3032
      3030      3028      3031      3033      3030      3028      3031      3034
      3031      3034      3036      3037      3031      3034      3036      3038
      3031      3034      3036      3039      3031      3034      3040      3041
      3031      3034      3040      3042      3031      3034      3040      3043
      3032      3031      3034      3035      3032      3031      3034      3036
      3032      3031      3034      3040      3033      3031      3034      3035
      3033      3031      3034      3036      3033      3031      3034      3040
      3035      3034      3036      3037      3035      3034      3036      3038
      3035      3034      3036      3039      3035      3034      3040      3041
      3035      3034      3040      3042      3035      3034      3040      3043
      3036      3034      3040      3041      3036      3034      3040      3042
      3036      3034      3040      3043      3037      3036      3034      3040
      3038      3036      3034      3040      3039      3036      3034      3040
      3044      3048      3051      3052      3044      3048      3051      3053
      3044      3048      3051      3057      3045      3044      3048      3049
      3045      3044      3048      3050      3045      3044      3048      3051
      3046      3044      3048      3049      3046      3044      3048      3050
      3046      3044      3048      3051      3047      3044      3048      3049
      3047      3044      3048      3050      3047      3044      3048      3051
      3048      3051      3057      3054      3049      3048      3051      3052
      3049      3048      3051      3053      3049      3048      3051      3057
      3050      3048      3051      3052      3050      3048      3051      3053
      3050      3048      3051      3057      3051      3057      3054      3055
      3051      3057      3054      3056      3051      3057      3054      3058
      3052      3051      3057      3054      3053      3051      3057      3054
      3054      3058      3059      3060      3054      3058      3059      3061
      3054      3058      3059      3062      3055      3054      3058      3059
      3056      3054      3058      3059      3057      3054      3058      3059
      3058      3059      3062      3063      3058      3059      3062      3064
      3058      3059      3062      3070      3059      3062      3064      3065
      3059      3062      3070      3071      3059      3062      3070      3072
      3059      3062      3070      3073      3060      3059      3062      3063
      3060      3059      3062      3064      3060      3059      3062      3070
      3061      3059      3062      3063      3061      3059      3062      3064
      3061      3059      3062      3070      3062      3064      3065      3066
      3062      3064      3065      3067      3062      3070      3073      3074
      3063      3062      3064      3065      3063      3062      3070      3071
      3063      3062      3070      3072      3063      3062      3070      3073
      3064      3062      3070      3071      3064      3062      3070      3072
      3064      3062      3070      3073      3064      3065      3067      3068
      3064      3065      3067      3069      3064      3065      3067      3079
      3065      3064      3062      3070      3065      3067      3079      3080
      3065      3067      3079      3081      3065      3067      3079      3082
      3066      3065      3067      3068      3066      3065      3067      3069
      3066      3065      3067      3079      3067      3079      3082      3083
      3067      3079      3082      3084      3067      3079      3082      3085
      3068      3067      3079      3080      3068      3067      3079      3081
      3068      3067      3079      3082      3069      3067      3079      3080
      3069      3067      3079      3081      3069      3067      3079      3082
      3070      3073      3074      3075      3070      3073      3074      3076
      3071      3070      3073      3074      3072      3070      3073      3074
      3073      3074      3076      3077      3073      3074      3076      3078
      3073      3074      3076      3126      3074      3076      3126      3127
      3074      3076      3126      3128      3074      3076      3126      3129
      3075      3074      3076      3077      3075      3074      3076      3078
      3075      3074      3076      3126      3076      3126      3129      3130
      3076      3126      3129      3131      3076      3126      3129      3132
      3077      3076      3126      3127      3077      3076      3126      3128
      3077      3076      3126      3129      3078      3076      3126      3127
      3078      3076      3126      3128      3078      3076      3126      3129
      3079      3082      3085      3086      3079      3082      3085      3087
      3080      3079      3082      3083      3080      3079      3082      3084
      3080      3079      3082      3085      3081      3079      3082      3083
      3081      3079      3082      3084      3081      3079      3082      3085
      3082      3085      3087      3088      3082      3085      3087      3089
      3083      3082      3085      3086      3083      3082      3085      3087
      3084      3082      3085      3086      3084      3082      3085      3087
      3085      3087      3089      3090      3085      3087      3089      3091
      3085      3087      3089      3092      3086      3085      3087      3088
      3086      3085      3087      3089      3087      3089      3092      3093
      3087      3089      3092      3094      3088      3087      3089      3090
      3088      3087      3089      3091      3088      3087      3089      3092
      3089      3092      3094      3095      3089      3092      3094      3096
      3090      3089      3092      3093      3090      3089      3092      3094
      3091      3089      3092      3093      3091      3089      3092      3094
      3092      3094      3096      3097      3092      3094      3096      3098
      3092      3094      3096      3099      3093      3092      3094      3095
      3093      3092      3094      3096      3094      3096      3099      3100
      3094      3096      3099      3101      3095      3094      3096      3097
      3095      3094      3096      3098      3095      3094      3096      3099
      3096      3099      3101      3102      3096      3099      3101      3103
      3097      3096      3099      3100      3097      3096      3099      3101
      3098      3096      3099      3100      3098      3096      3099      3101
      3099      3101      3103      3104      3099      3101      3103      3105
      3099      3101      3103      3106      3100      3099      3101      3102
      3100      3099      3101      3103      3101      3103      3106      3107
      3101      3103      3106      3108      3102      3101      3103      3104
      3102      3101      3103      3105      3102      3101      3103      3106
      3103      3106      3108      3109      3103      3106      3108      3110
      3104      3103      3106      3107      3104      3103      3106      3108
      3105      3103      3106      3107      3105      3103      3106      3108
      3106      3108      3110      3111      3106      3108      3110      3112
      3106      3108      3110      3113      3107      3106      3108      3109
      3107      3106      3108      3110      3108      3110      3113      3114
      3108      3110      3113      3115      3108      3110      3113      3116
      3109      3108      3110      3111      3109      3108      3110      3112
      3109      3108      3110      3113      3110      3113      3116      3117
      3110      3113      3116      3118      3110      3113      3116      3119
      3111      3110      3113      3114      3111      3110      3113      3115
      3111      3110      3113      3116      3112      3110      3113      3114
      3112      3110      3113      3115      3112      3110      3113      3116
      3113      3116      3119      3120      3113      3116      3119      3121
      3113      3116      3119      3122      3114      3113      3116      3117
      3114      3113      3116      3118      3114      3113      3116      3119
      3115      3113      3116      3117      3115      3113      3116      3118
      3115      3113      3116      3119      3116      3119      3122      3123
      3116      3119      3122      3124      3116      3119      3122      3125
      3117      3116      3119      3120      3117      3116      3119      3121
      3117      3116      3119      3122      3118      3116      3119      3120
      3118      3116      3119      3121      3118      3116      3119      3122
      3120      3119      3122      3123      3120      3119      3122      3124
      3120      3119      3122      3125      3121      3119      3122      3123
      3121      3119      3122      3124      3121      3119      3122      3125
      3126      3129      3132      3133      3126      3129      3132      3134
      3126      3129      3132      3135      3127      3126      3129      3130
      3127      3126      3129      3131      3127      3126      3129      3132
      3128      3126      3129      3130      3128      3126      3129      3131
      3128      3126      3129      3132      3129      3132      3135      3136
      3129      3132      3135      3137      3129      3132      3135      3138
      3130      3129      3132      3133      3130      3129      3132      3134
      3130      3129      3132      3135      3131      3129      3132      3133
      3131      3129      3132      3134      3131      3129      3132      3135
      3132      3135      3138      3139      3132      3135      3138      3140
      3132      3135      3138      3141      3133      3132      3135      3136
      3133      3132      3135      3137      3133      3132      3135      3138
      3134      3132      3135      3136      3134      3132      3135      3137
      3134      3132      3135      3138      3135      3138      3141      3142
      3135      3138      3141      3143      3135      3138      3141      3144
      3136      3135      3138      3139      3136      3135      3138      3140
      3136      3135      3138      3141      3137      3135      3138      3139
      3137      3135      3138      3140      3137      3135      3138      3141
      3138      3141      3144      3145      3138      3141      3144      3146
      3138      3141      3144      3147      3139      3138      3141      3142
      3139      3138      3141      3143      3139      3138      3141      3144
      3140      3138      3141      3142      3140      3138      3141      3143
      3140      3138      3141      3144      3141      3144      3147      3148
      3141      3144      3147      3149      3141      3144      3147      3150
      3142      3141      3144      3145      3142      3141      3144      3146
      3142      3141      3144      3147      3143      3141      3144      3145
      3143      3141      3144      3146      3143      3141      3144      3147
      3144      3147      3150      3151      3144      3147      3150      3152
      3144      3147      3150      3153      3145      3144      3147      3148
      3145      3144      3147      3149      3145      3144      3147      3150
      3146      3144      3147      3148      3146      3144      3147      3149
      3146      3144      3147      3150      3147      3150      3153      3154
      3147      3150      3153      3155      3147      3150      3153      3156
      3148      3147      3150      3151      3148      3147      3150      3152
      3148      3147      3150      3153      3149      3147      3150      3151
      3149      3147      3150      3152      3149      3147      3150      3153
      3150      3153      3156      3157      3150      3153      3156      3158
      3150      3153      3156      3159      3151      3150      3153      3154
      3151      3150      3153      3155      3151      3150      3153      3156
      3152      3150      3153      3154      3152      3150      3153      3155
      3152      3150      3153      3156      3153      3156      3159      3160
      3153      3156      3159      3161      3153      3156      3159      3162
      3154      3153      3156      3157      3154      3153      3156      3158
      3154      3153      3156      3159      3155      3153      3156      3157
      3155      3153      3156      3158      3155      3153      3156      3159
      3156      3159      3162      3163      3156      3159      3162      3164
      3156      3159      3162      3165      3157      3156      3159      3160
      3157      3156      3159      3161      3157      3156      3159      3162
      3158      3156      3159      3160      3158      3156      3159      3161
      3158      3156      3159      3162      3159      3162      3165      3166
      3159      3162      3165      3167      3159      3162      3165      3168
      3160      3159      3162      3163      3160      3159      3162      3164
      3160      3159      3162      3165      3161      3159      3162      3163
      3161      3159      3162      3164      3161      3159      3162      3165
      3162      3165      3168      3169      3162      3165      3168      3170
      3162      3165      3168      3171      3163      3162      3165      3166
      3163      3162      3165      3167      3163      3162      3165      3168
      3164      3162      3165      3166      3164      3162      3165      3167
      3164      3162      3165      3168      3165      3168      3171      3172
      3165      3168      3171      3173      3165      3168      3171      3174
      3166      3165      3168      3169      3166      3165      3168      3170
      3166      3165      3168      3171      3167      3165      3168      3169
      3167      3165      3168      3170      3167      3165      3168      3171
      3169      3168      3171      3172      3169      3168      3171      3173
      3169      3168      3171      3174      3170      3168      3171      3172
      3170      3168      3171      3173      3170      3168      3171      3174
      3175      3188      3191      3192      3175      3188      3191      3193
      3175      3188      3191      3198      3176      3175      3180      3181
      3176      3175      3180      3182      3176      3175      3180      3183
      3176      3175      3184      3185      3176      3175      3184      3186
      3176      3175      3184      3187      3176      3175      3188      3189
      3176      3175      3188      3190      3176      3175      3188      3191
      3177      3176      3175      3180      3177      3176      3175      3184
      3177      3176      3175      3188      3178      3176      3175      3180
      3178      3176      3175      3184      3178      3176      3175      3188
      3179      3176      3175      3180      3179      3176      3175      3184
      3179      3176      3175      3188      3180      3175      3184      3185
      3180      3175      3184      3186      3180      3175      3184      3187
      3180      3175      3188      3189      3180      3175      3188      3190
      3180      3175      3188      3191      3181      3180      3175      3184
      3181      3180      3175      3188      3182      3180      3175      3184
      3182      3180      3175      3188      3183      3180      3175      3184
      3183      3180      3175      3188      3184      3175      3188      3189
      3184      3175      3188      3190      3184      3175      3188      3191
      3185      3184      3175      3188      3186      3184      3175      3188
      3187      3184      3175      3188      3188      3191      3198      3194
      3189      3188      3191      3192      3189      3188      3191      3193
      3189      3188      3191      3198      3190      3188      3191      3192
      3190      3188      3191      3193      3190      3188      3191      3198
      3191      3198      3194      3195      3191      3198      3194      3196
      3191      3198      3194      3197      3192      3191      3198      3194
      3193      3191      3198      3194      3194      3197      3199      3200
      3194      3197      3199      3201      3194      3197      3199      3204
      3195      3194      3197      3199      3196      3194      3197      3199
      3197      3199      3204      3202      3197      3199      3204      3205
      3197      3199      3204      3206      3198      3194      3197      3199
      3199      3204      3202      3203      3199      3204      3202      3254
      3199      3204      3206      3207      3199      3204      3206      3208
      3199      3204      3206      3210      3200      3199      3204      3202
      3200      3199      3204      3205      3200      3199      3204      3206
      3201      3199      3204      3202      3201      3199      3204      3205
      3201      3199      3204      3206      3202      3204      3206      3207
      3202      3204      3206      3208      3202      3204      3206      3210
      3202      3254      3256      3257      3202      3254      3256      3258
      3202      3254      3256      3259      3203      3202      3204      3205
      3203      3202      3204      3206      3203      3202      3254      3255
      3203      3202      3254      3256      3204      3202      3254      3255
      3204      3202      3254      3256      3204      3206      3208      3209
      3204      3206      3210      3211      3204      3206      3210      3212
      3205      3204      3202      3254      3205      3204      3206      3207
      3205      3204      3206      3208      3205      3204      3206      3210
      3206      3204      3202      3254      3206      3210      3212      3213
      3206      3210      3212      3214      3207      3206      3208      3209
      3207      3206      3210      3211      3207      3206      3210      3212
      3208      3206      3210      3211      3208      3206      3210      3212
      3209      3208      3206      3210      3210      3212      3214      3215
      3210      3212      3214      3216      3210      3212      3214      3217
      3211      3210      3212      3213      3211      3210      3212      3214
      3212      3214      3217      3218      3212      3214      3217      3219
      3212      3214      3217      3220      3213      3212      3214      3215
      3213      3212      3214      3216      3213      3212      3214      3217
      3214      3217      3220      3221      3214      3217      3220      3222
      3214      3217      3220      3223      3215      3214      3217      3218
      3215      3214      3217      3219      3215      3214      3217      3220
      3216      3214      3217      3218      3216      3214      3217      3219
      3216      3214      3217      3220      3217      3220      3223      3224
      3217      3220      3223      3225      3217      3220      3223      3226
      3218      3217      3220      3221      3218      3217      3220      3222
      3218      3217      3220      3223      3219      3217      3220      3221
      3219      3217      3220      3222      3219      3217      3220      3223
      3220      3223      3226      3227      3220      3223      3226      3228
      3220      3223      3226      3229      3221      3220      3223      3224
      3221      3220      3223      3225      3221      3220      3223      3226
      3222      3220      3223      3224      3222      3220      3223      3225
      3222      3220      3223      3226      3223      3226      3229      3230
      3223      3226      3229      3231      3223      3226      3229      3232
      3224      3223      3226      3227      3224      3223      3226      3228
      3224      3223      3226      3229      3225      3223      3226      3227
      3225      3223      3226      3228      3225      3223      3226      3229
      3226      3229      3232      3233      3226      3229      3232      3234
      3226      3229      3232      3235      3227      3226      3229      3230
      3227      3226      3229      3231      3227      3226      3229      3232
      3228      3226      3229      3230      3228      3226      3229      3231
      3228      3226      3229      3232      3229      3232      3235      3236
      3229      3232      3235      3237      3229      3232      3235      3238
      3230      3229      3232      3233      3230      3229      3232      3234
      3230      3229      3232      3235      3231      3229      3232      3233
      3231      3229      3232      3234      3231      3229      3232      3235
      3232      3235      3238      3239      3232      3235      3238      3240
      3232      3235      3238      3241      3233      3232      3235      3236
      3233      3232      3235      3237      3233      3232      3235      3238
      3234      3232      3235      3236      3234      3232      3235      3237
      3234      3232      3235      3238      3235      3238      3241      3242
      3235      3238      3241      3243      3235      3238      3241      3244
      3236      3235      3238      3239      3236      3235      3238      3240
      3236      3235      3238      3241      3237      3235      3238      3239
      3237      3235      3238      3240      3237      3235      3238      3241
      3238      3241      3244      3245      3238      3241      3244      3246
      3238      3241      3244      3247      3239      3238      3241      3242
      3239      3238      3241      3243      3239      3238      3241      3244
      3240      3238      3241      3242      3240      3238      3241      3243
      3240      3238      3241      3244      3241      3244      3247      3248
      3241      3244      3247      3249      3241      3244      3247      3250
      3242      3241      3244      3245      3242      3241      3244      3246
      3242      3241      3244      3247      3243      3241      3244      3245
      3243      3241      3244      3246      3243      3241      3244      3247
      3244      3247      3250      3251      3244      3247      3250      3252
      3244      3247      3250      3253      3245      3244      3247      3248
      3245      3244      3247      3249      3245      3244      3247      3250
      3246      3244      3247      3248      3246      3244      3247      3249
      3246      3244      3247      3250      3248      3247      3250      3251
      3248      3247      3250      3252      3248      3247      3250      3253
      3249      3247      3250      3251      3249      3247      3250      3252
      3249      3247      3250      3253      3254      3256      3259      3260
      3254      3256      3259      3261      3254      3256      3259      3262
      3255      3254      3256      3257      3255      3254      3256      3258
      3255      3254      3256      3259      3256      3259      3262      3263
      3256      3259      3262      3264      3256      3259      3262      3265
      3257      3256      3259      3260      3257      3256      3259      3261
      3257      3256      3259      3262      3258      3256      3259      3260
      3258      3256      3259      3261      3258      3256      3259      3262
      3259      3262      3265      3266      3259      3262      3265      3267
      3259      3262      3265      3268      3260      3259      3262      3263
      3260      3259      3262      3264      3260      3259      3262      3265
      3261      3259      3262      3263      3261      3259      3262      3264
      3261      3259      3262      3265      3262      3265      3268      3269
      3262      3265      3268      3270      3262      3265      3268      3271
      3263      3262      3265      3266      3263      3262      3265      3267
      3263      3262      3265      3268      3264      3262      3265      3266
      3264      3262      3265      3267      3264      3262      3265      3268
      3265      3268      3271      3272      3265      3268      3271      3273
      3265      3268      3271      3274      3266      3265      3268      3269
      3266      3265      3268      3270      3266      3265      3268      3271
      3267      3265      3268      3269      3267      3265      3268      3270
      3267      3265      3268      3271      3268      3271      3274      3275
      3268      3271      3274      3276      3268      3271      3274      3277
      3269      3268      3271      3272      3269      3268      3271      3273
      3269      3268      3271      3274      3270      3268      3271      3272
      3270      3268      3271      3273      3270      3268      3271      3274
      3271      3274      3277      3278      3271      3274      3277      3279
      3272      3271      3274      3275      3272      3271      3274      3276
      3272      3271      3274      3277      3273      3271      3274      3275
      3273      3271      3274      3276      3273      3271      3274      3277
      3274      3277      3279      3280      3274      3277      3279      3281
      3275      3274      3277      3278      3275      3274      3277      3279
      3276      3274      3277      3278      3276      3274      3277      3279
      3277      3279      3281      3282      3277      3279      3281      3283
      3277      3279      3281      3284      3278      3277      3279      3280
      3278      3277      3279      3281      3279      3281      3284      3285
      3279      3281      3284      3286      3279      3281      3284      3287
      3280      3279      3281      3282      3280      3279      3281      3283
      3280      3279      3281      3284      3281      3284      3287      3288
      3281      3284      3287      3289      3281      3284      3287      3290
      3282      3281      3284      3285      3282      3281      3284      3286
      3282      3281      3284      3287      3283      3281      3284      3285
      3283      3281      3284      3286      3283      3281      3284      3287
      3284      3287      3290      3291      3284      3287      3290      3292
      3284      3287      3290      3293      3285      3284      3287      3288
      3285      3284      3287      3289      3285      3284      3287      3290
      3286      3284      3287      3288      3286      3284      3287      3289
      3286      3284      3287      3290      3287      3290      3293      3294
      3287      3290      3293      3295      3287      3290      3293      3296
      3288      3287      3290      3291      3288      3287      3290      3292
      3288      3287      3290      3293      3289      3287      3290      3291
      3289      3287      3290      3292      3289      3287      3290      3293
      3290      3293      3296      3297      3290      3293      3296      3298
      3290      3293      3296      3299      3291      3290      3293      3294
      3291      3290      3293      3295      3291      3290      3293      3296
      3292      3290      3293      3294      3292      3290      3293      3295
      3292      3290      3293      3296      3293      3296      3299      3300
      3293      3296      3299      3301      3293      3296      3299      3302
      3294      3293      3296      3297      3294      3293      3296      3298
      3294      3293      3296      3299      3295      3293      3296      3297
      3295      3293      3296      3298      3295      3293      3296      3299
      3296      3299      3302      3303      3296      3299      3302      3304
      3296      3299      3302      3305      3297      3296      3299      3300
      3297      3296      3299      3301      3297      3296      3299      3302
      3298      3296      3299      3300      3298      3296      3299      3301
      3298      3296      3299      3302      3300      3299      3302      3303
      3300      3299      3302      3304      3300      3299      3302      3305
      3301      3299      3302      3303      3301      3299      3302      3304
      3301      3299      3302      3305      3306      3310      3313      3314
      3306      3310      3313      3344      3306      3352      3349      3344
      3306      3352      3349      3350      3306      3352      3349      3351
      3307      3306      3308      3309      3307      3306      3310      3311
      3307      3306      3310      3312      3307      3306      3310      3313
      3307      3306      3352      3349      3307      3306      3352      3353
      3307      3306      3352      3354      3308      3306      3310      3311
      3308      3306      3310      3312      3308      3306      3310      3313
      3308      3306      3352      3349      3308      3306      3352      3353
      3308      3306      3352      3354      3309      3308      3306      3310
      3309      3308      3306      3352      3310      3306      3352      3349
      3310      3306      3352      3353      3310      3306      3352      3354
      3310      3313      3314      3315      3310      3313      3314      3316
      3310      3313      3344      3342      3310      3313      3344      3345
      3310      3313      3344      3349      3311      3310      3306      3352
      3311      3310      3313      3314      3311      3310      3313      3344
      3312      3310      3306      3352      3312      3310      3313      3314
      3312      3310      3313      3344      3313      3310      3306      3352
      3313      3314      3316      3317      3313      3314      3316      3318
      3313      3314      3316      3319      3313      3344      3342      3319
      3313      3344      3342      3339      3313      3344      3342      3343
      3313      3344      3345      3346      3313      3344      3345      3347
      3313      3344      3345      3348      3313      3344      3349      3350
      3313      3344      3349      3351      3313      3344      3349      3352
      3314      3313      3344      3342      3314      3313      3344      3345
      3314      3313      3344      3349      3314      3316      3319      3320
      3314      3316      3319      3321      3314      3316      3319      3342
      3315      3314      3313      3344      3315      3314      3316      3317
      3315      3314      3316      3318      3315      3314      3316      3319
      3316      3314      3313      3344      3316      3319      3321      3322
      3316      3319      3321      3323      3316      3319      3321      3331
      3316      3319      3342      3339      3316      3319      3342      3343
      3316      3319      3342      3344      3317      3316      3319      3320
      3317      3316      3319      3321      3317      3316      3319      3342
      3318      3316      3319      3320      3318      3316      3319      3321
      3318      3316      3319      3342      3319      3321      3323      3324
      3319      3321      3323      3325      3319      3321      3323      3326
      3319      3321      3331      3329      3319      3321      3331      3332
      3319      3321      3331      3336      3319      3342      3339      3336
      3319      3342      3339      3340      3319      3342      3339      3341
      3319      3342      3344      3345      3319      3342      3344      3349
      3320      3319      3321      3322      3320      3319      3321      3323
      3320      3319      3321      3331      3320      3319      3342      3339
      3320      3319      3342      3343      3320      3319      3342      3344
      3321      3319      3342      3339      3321      3319      3342      3343
      3321      3319      3342      3344      3321      3323      3326      3327
      3321      3323      3326      3328      3321      3323      3326      3329
      3321      3331      3329      3326      3321      3331      3329      3330
      3321      3331      3329      3355      3321      3331      3332      3333
      3321      3331      3332      3334      3321      3331      3332      3335
      3321      3331      3336      3337      3321      3331      3336      3338
      3321      3331      3336      3339      3322      3321      3319      3342
      3322      3321      3323      3324      3322      3321      3323      3325
      3322      3321      3323      3326      3322      3321      3331      3329
      3322      3321      3331      3332      3322      3321      3331      3336
      3323      3321      3319      3342      3323      3321      3331      3329
      3323      3321      3331      3332      3323      3321      3331      3336
      3323      3326      3329      3330      3323      3326      3329      3331
      3323      3326      3329      3355      3324      3323      3321      3331
      3324      3323      3326      3327      3324      3323      3326      3328
      3324      3323      3326      3329      3325      3323      3321      3331
      3325      3323      3326      3327      3325      3323      3326      3328
      3325      3323      3326      3329      3326      3323      3321      3331
      3326      3329      3331      3332      3326      3329      3331      3336
      3326      3329      3355      3356      3326      3329      3355      3357
      3326      3329      3355      3361      3327      3326      3329      3330
      3327      3326      3329      3331      3327      3326      3329      3355
      3328      3326      3329      3330      3328      3326      3329      3331
      3328      3326      3329      3355      3329      3331      3332      3333
      3329      3331      3332      3334      3329      3331      3332      3335
      3329      3331      3336      3337      3329      3331      3336      3338
      3329      3331      3336      3339      3329      3355      3357      3358
      3329      3355      3357      3359      3329      3355      3357      3360
      3329      3355      3361      3362      3329      3355      3361      3363
      3329      3355      3361      3364      3330      3329      3331      3332
      3330      3329      3331      3336      3330      3329      3355      3356
      3330      3329      3355      3357      3330      3329      3355      3361
      3331      3321      3319      3342      3331      3329      3355      3356
      3331      3329      3355      3357      3331      3329      3355      3361
      3331      3336      3339      3340      3331      3336      3339      3341
      3331      3336      3339      3342      3332      3331      3329      3355
      3332      3331      3336      3337      3332      3331      3336      3338
      3332      3331      3336      3339      3333      3332      3331      3336
      3334      3332      3331      3336      3335      3332      3331      3336
      3336      3331      3329      3355      3336      3339      3342      3343
      3336      3339      3342      3344      3337      3336      3339      3340
      3337      3336      3339      3341      3337      3336      3339      3342
      3338      3336      3339      3340      3338      3336      3339      3341
      3338      3336      3339      3342      3339      3342      3344      3345
      3339      3342      3344      3349      3340      3339      3342      3343
      3340      3339      3342      3344      3341      3339      3342      3343
      3341      3339      3342      3344      3342      3344      3345      3346
      3342      3344      3345      3347      3342      3344      3345      3348
      3342      3344      3349      3350      3342      3344      3349      3351
      3342      3344      3349      3352      3343      3342      3344      3345
      3343      3342      3344      3349      3344      3349      3352      3353
      3344      3349      3352      3354      3345      3344      3349      3350
      3345      3344      3349      3351      3345      3344      3349      3352
      3346      3345      3344      3349      3347      3345      3344      3349
      3348      3345      3344      3349      3350      3349      3352      3353
      3350      3349      3352      3354      3351      3349      3352      3353
      3351      3349      3352      3354      3355      3361      3364      3365
      3355      3361      3364      3366      3355      3361      3364      3367
      3356      3355      3357      3358      3356      3355      3357      3359
      3356      3355      3357      3360      3356      3355      3361      3362
      3356      3355      3361      3363      3356      3355      3361      3364
      3357      3355      3361      3362      3357      3355      3361      3363
      3357      3355      3361      3364      3358      3357      3355      3361
      3359      3357      3355      3361      3360      3357      3355      3361
      3361      3364      3367      3368      3361      3364      3367      3369
      3361      3364      3367      3370      3362      3361      3364      3365
      3362      3361      3364      3366      3362      3361      3364      3367
      3363      3361      3364      3365      3363      3361      3364      3366
      3363      3361      3364      3367      3364      3367      3370      3371
      3364      3367      3370      3372      3364      3367      3370      3376
      3365      3364      3367      3368      3365      3364      3367      3369
      3365      3364      3367      3370      3366      3364      3367      3368
      3366      3364      3367      3369      3366      3364      3367      3370
      3367      3370      3372      3373      3367      3370      3372      3374
      3367      3370      3372      3375      3367      3370      3376      3377
      3367      3370      3376      3378      3367      3370      3376      3379
      3368      3367      3370      3371      3368      3367      3370      3372
      3368      3367      3370      3376      3369      3367      3370      3371
      3369      3367      3370      3372      3369      3367      3370      3376
      3371      3370      3372      3373      3371      3370      3372      3374
      3371      3370      3372      3375      3371      3370      3376      3377
      3371      3370      3376      3378      3371      3370      3376      3379
      3372      3370      3376      3377      3372      3370      3376      3378
      3372      3370      3376      3379      3373      3372      3370      3376
      3374      3372      3370      3376      3375      3372      3370      3376
      3380      3393      3396      3397      3380      3393      3396      3398
      3380      3393      3396      3403      3381      3380      3385      3386
      3381      3380      3385      3387      3381      3380      3385      3388
      3381      3380      3389      3390      3381      3380      3389      3391
      3381      3380      3389      3392      3381      3380      3393      3394
      3381      3380      3393      3395      3381      3380      3393      3396
      3382      3381      3380      3385      3382      3381      3380      3389
      3382      3381      3380      3393      3383      3381      3380      3385
      3383      3381      3380      3389      3383      3381      3380      3393
      3384      3381      3380      3385      3384      3381      3380      3389
      3384      3381      3380      3393      3385      3380      3389      3390
      3385      3380      3389      3391      3385      3380      3389      3392
      3385      3380      3393      3394      3385      3380      3393      3395
      3385      3380      3393      3396      3386      3385      3380      3389
      3386      3385      3380      3393      3387      3385      3380      3389
      3387      3385      3380      3393      3388      3385      3380      3389
      3388      3385      3380      3393      3389      3380      3393      3394
      3389      3380      3393      3395      3389      3380      3393      3396
      3390      3389      3380      3393      3391      3389      3380      3393
      3392      3389      3380      3393      3393      3396      3403      3399
      3394      3393      3396      3397      3394      3393      3396      3398
      3394      3393      3396      3403      3395      3393      3396      3397
      3395      3393      3396      3398      3395      3393      3396      3403
      3396      3403      3399      3400      3396      3403      3399      3401
      3396      3403      3399      3402      3397      3396      3403      3399
      3398      3396      3403      3399      3399      3402      3404      3405
      3399      3402      3404      3406      3399      3402      3404      3409
      3400      3399      3402      3404      3401      3399      3402      3404
      3402      3404      3409      3407      3402      3404      3409      3410
      3402      3404      3409      3411      3403      3399      3402      3404
      3404      3409      3407      3408      3404      3409      3407      3459
      3404      3409      3411      3412      3404      3409      3411      3413
      3404      3409      3411      3415      3405      3404      3409      3407
      3405      3404      3409      3410      3405      3404      3409      3411
      3406      3404      3409      3407      3406      3404      3409      3410
      3406      3404      3409      3411      3407      3409      3411      3412
      3407      3409      3411      3413      3407      3409      3411      3415
      3407      3459      3461      3462      3407      3459      3461      3463
      3407      3459      3461      3464      3408      3407      3409      3410
      3408      3407      3409      3411      3408      3407      3459      3460
      3408      3407      3459      3461      3409      3407      3459      3460
      3409      3407      3459      3461      3409      3411      3413      3414
      3409      3411      3415      3416      3409      3411      3415      3417
      3410      3409      3407      3459      3410      3409      3411      3412
      3410      3409      3411      3413      3410      3409      3411      3415
      3411      3409      3407      3459      3411      3415      3417      3418
      3411      3415      3417      3419      3412      3411      3413      3414
      3412      3411      3415      3416      3412      3411      3415      3417
      3413      3411      3415      3416      3413      3411      3415      3417
      3414      3413      3411      3415      3415      3417      3419      3420
      3415      3417      3419      3421      3415      3417      3419      3422
      3416      3415      3417      3418      3416      3415      3417      3419
      3417      3419      3422      3423      3417      3419      3422      3424
      3417      3419      3422      3425      3418      3417      3419      3420
      3418      3417      3419      3421      3418      3417      3419      3422
      3419      3422      3425      3426      3419      3422      3425      3427
      3419      3422      3425      3428      3420      3419      3422      3423
      3420      3419      3422      3424      3420      3419      3422      3425
      3421      3419      3422      3423      3421      3419      3422      3424
      3421      3419      3422      3425      3422      3425      3428      3429
      3422      3425      3428      3430      3422      3425      3428      3431
      3423      3422      3425      3426      3423      3422      3425      3427
      3423      3422      3425      3428      3424      3422      3425      3426
      3424      3422      3425      3427      3424      3422      3425      3428
      3425      3428      3431      3432      3425      3428      3431      3433
      3425      3428      3431      3434      3426      3425      3428      3429
      3426      3425      3428      3430      3426      3425      3428      3431
      3427      3425      3428      3429      3427      3425      3428      3430
      3427      3425      3428      3431      3428      3431      3434      3435
      3428      3431      3434      3436      3428      3431      3434      3437
      3429      3428      3431      3432      3429      3428      3431      3433
      3429      3428      3431      3434      3430      3428      3431      3432
      3430      3428      3431      3433      3430      3428      3431      3434
      3431      3434      3437      3438      3431      3434      3437      3439
      3431      3434      3437      3440      3432      3431      3434      3435
      3432      3431      3434      3436      3432      3431      3434      3437
      3433      3431      3434      3435      3433      3431      3434      3436
      3433      3431      3434      3437      3434      3437      3440      3441
      3434      3437      3440      3442      3434      3437      3440      3443
      3435      3434      3437      3438      3435      3434      3437      3439
      3435      3434      3437      3440      3436      3434      3437      3438
      3436      3434      3437      3439      3436      3434      3437      3440
      3437      3440      3443      3444      3437      3440      3443      3445
      3437      3440      3443      3446      3438      3437      3440      3441
      3438      3437      3440      3442      3438      3437      3440      3443
      3439      3437      3440      3441      3439      3437      3440      3442
      3439      3437      3440      3443      3440      3443      3446      3447
      3440      3443      3446      3448      3440      3443      3446      3449
      3441      3440      3443      3444      3441      3440      3443      3445
      3441      3440      3443      3446      3442      3440      3443      3444
      3442      3440      3443      3445      3442      3440      3443      3446
      3443      3446      3449      3450      3443      3446      3449      3451
      3443      3446      3449      3452      3444      3443      3446      3447
      3444      3443      3446      3448      3444      3443      3446      3449
      3445      3443      3446      3447      3445      3443      3446      3448
      3445      3443      3446      3449      3446      3449      3452      3453
      3446      3449      3452      3454      3446      3449      3452      3455
      3447      3446      3449      3450      3447      3446      3449      3451
      3447      3446      3449      3452      3448      3446      3449      3450
      3448      3446      3449      3451      3448      3446      3449      3452
      3449      3452      3455      3456      3449      3452      3455      3457
      3449      3452      3455      3458      3450      3449      3452      3453
      3450      3449      3452      3454      3450      3449      3452      3455
      3451      3449      3452      3453      3451      3449      3452      3454
      3451      3449      3452      3455      3453      3452      3455      3456
      3453      3452      3455      3457      3453      3452      3455      3458
      3454      3452      3455      3456      3454      3452      3455      3457
      3454      3452      3455      3458      3459      3461      3464      3465
      3459      3461      3464      3466      3459      3461      3464      3467
      3460      3459      3461      3462      3460      3459      3461      3463
      3460      3459      3461      3464      3461      3464      3467      3468
      3461      3464      3467      3469      3461      3464      3467      3470
      3462      3461      3464      3465      3462      3461      3464      3466
      3462      3461      3464      3467      3463      3461      3464      3465
      3463      3461      3464      3466      3463      3461      3464      3467
      3464      3467      3470      3471      3464      3467      3470      3472
      3464      3467      3470      3473      3465      3464      3467      3468
      3465      3464      3467      3469      3465      3464      3467      3470
      3466      3464      3467      3468      3466      3464      3467      3469
      3466      3464      3467      3470      3467      3470      3473      3474
      3467      3470      3473      3475      3467      3470      3473      3476
      3468      3467      3470      3471      3468      3467      3470      3472
      3468      3467      3470      3473      3469      3467      3470      3471
      3469      3467      3470      3472      3469      3467      3470      3473
      3470      3473      3476      3477      3470      3473      3476      3478
      3470      3473      3476      3479      3471      3470      3473      3474
      3471      3470      3473      3475      3471      3470      3473      3476
      3472      3470      3473      3474      3472      3470      3473      3475
      3472      3470      3473      3476      3473      3476      3479      3480
      3473      3476      3479      3481      3473      3476      3479      3482
      3474      3473      3476      3477      3474      3473      3476      3478
      3474      3473      3476      3479      3475      3473      3476      3477
      3475      3473      3476      3478      3475      3473      3476      3479
      3476      3479      3482      3483      3476      3479      3482      3484
      3477      3476      3479      3480      3477      3476      3479      3481
      3477      3476      3479      3482      3478      3476      3479      3480
      3478      3476      3479      3481      3478      3476      3479      3482
      3479      3482      3484      3485      3479      3482      3484      3486
      3480      3479      3482      3483      3480      3479      3482      3484
      3481      3479      3482      3483      3481      3479      3482      3484
      3482      3484      3486      3487      3482      3484      3486      3488
      3482      3484      3486      3489      3483      3482      3484      3485
      3483      3482      3484      3486      3484      3486      3489      3490
      3484      3486      3489      3491      3484      3486      3489      3492
      3485      3484      3486      3487      3485      3484      3486      3488
      3485      3484      3486      3489      3486      3489      3492      3493
      3486      3489      3492      3494      3486      3489      3492      3495
      3487      3486      3489      3490      3487      3486      3489      3491
      3487      3486      3489      3492      3488      3486      3489      3490
      3488      3486      3489      3491      3488      3486      3489      3492
      3489      3492      3495      3496      3489      3492      3495      3497
      3489      3492      3495      3498      3490      3489      3492      3493
      3490      3489      3492      3494      3490      3489      3492      3495
      3491      3489      3492      3493      3491      3489      3492      3494
      3491      3489      3492      3495      3492      3495      3498      3499
      3492      3495      3498      3500      3492      3495      3498      3501
      3493      3492      3495      3496      3493      3492      3495      3497
      3493      3492      3495      3498      3494      3492      3495      3496
      3494      3492      3495      3497      3494      3492      3495      3498
      3495      3498      3501      3502      3495      3498      3501      3503
      3495      3498      3501      3504      3496      3495      3498      3499
      3496      3495      3498      3500      3496      3495      3498      3501
      3497      3495      3498      3499      3497      3495      3498      3500
      3497      3495      3498      3501      3498      3501      3504      3505
      3498      3501      3504      3506      3498      3501      3504      3507
      3499      3498      3501      3502      3499      3498      3501      3503
      3499      3498      3501      3504      3500      3498      3501      3502
      3500      3498      3501      3503      3500      3498      3501      3504
      3501      3504      3507      3508      3501      3504      3507      3509
      3501      3504      3507      3510      3502      3501      3504      3505
      3502      3501      3504      3506      3502      3501      3504      3507
      3503      3501      3504      3505      3503      3501      3504      3506
      3503      3501      3504      3507      3505      3504      3507      3508
      3505      3504      3507      3509      3505      3504      3507      3510
      3506      3504      3507      3508      3506      3504      3507      3509
      3506      3504      3507      3510      3511      3524      3527      3528
      3511      3524      3527      3529      3511      3524      3527      3533
      3512      3511      3516      3517      3512      3511      3516      3518
      3512      3511      3516      3519      3512      3511      3520      3521
      3512      3511      3520      3522      3512      3511      3520      3523
      3512      3511      3524      3525      3512      3511      3524      3526
      3512      3511      3524      3527      3513      3512      3511      3516
      3513      3512      3511      3520      3513      3512      3511      3524
      3514      3512      3511      3516      3514      3512      3511      3520
      3514      3512      3511      3524      3515      3512      3511      3516
      3515      3512      3511      3520      3515      3512      3511      3524
      3516      3511      3520      3521      3516      3511      3520      3522
      3516      3511      3520      3523      3516      3511      3524      3525
      3516      3511      3524      3526      3516      3511      3524      3527
      3517      3516      3511      3520      3517      3516      3511      3524
      3518      3516      3511      3520      3518      3516      3511      3524
      3519      3516      3511      3520      3519      3516      3511      3524
      3520      3511      3524      3525      3520      3511      3524      3526
      3520      3511      3524      3527      3521      3520      3511      3524
      3522      3520      3511      3524      3523      3520      3511      3524
      3524      3527      3533      3530      3525      3524      3527      3528
      3525      3524      3527      3529      3525      3524      3527      3533
      3526      3524      3527      3528      3526      3524      3527      3529
      3526      3524      3527      3533      3527      3533      3530      3531
      3527      3533      3530      3532      3527      3533      3530      3534
      3528      3527      3533      3530      3529      3527      3533      3530
      3530      3534      3535      3536      3530      3534      3535      3537
      3530      3534      3535      3538      3531      3530      3534      3535
      3532      3530      3534      3535      3533      3530      3534      3535
      3534      3535      3538      3539      3534      3535      3538      3540
      3534      3535      3538      3546      3535      3538      3540      3541
      3535      3538      3546      3547      3535      3538      3546      3548
      3535      3538      3546      3549      3536      3535      3538      3539
      3536      3535      3538      3540      3536      3535      3538      3546
      3537      3535      3538      3539      3537      3535      3538      3540
      3537      3535      3538      3546      3538      3540      3541      3542
      3538      3540      3541      3543      3538      3546      3549      3550
      3539      3538      3540      3541      3539      3538      3546      3547
      3539      3538      3546      3548      3539      3538      3546      3549
      3540      3538      3546      3547      3540      3538      3546      3548
      3540      3538      3546      3549      3540      3541      3543      3544
      3540      3541      3543      3545      3540      3541      3543      3555
      3541      3540      3538      3546      3541      3543      3555      3556
      3541      3543      3555      3557      3541      3543      3555      3558
      3542      3541      3543      3544      3542      3541      3543      3545
      3542      3541      3543      3555      3543      3555      3558      3559
      3543      3555      3558      3560      3543      3555      3558      3561
      3544      3543      3555      3556      3544      3543      3555      3557
      3544      3543      3555      3558      3545      3543      3555      3556
      3545      3543      3555      3557      3545      3543      3555      3558
      3546      3549      3550      3551      3546      3549      3550      3552
      3547      3546      3549      3550      3548      3546      3549      3550
      3549      3550      3552      3553      3549      3550      3552      3554
      3549      3550      3552      3600      3550      3552      3600      3601
      3550      3552      3600      3602      3550      3552      3600      3603
      3551      3550      3552      3553      3551      3550      3552      3554
      3551      3550      3552      3600      3552      3600      3603      3604
      3552      3600      3603      3605      3552      3600      3603      3606
      3553      3552      3600      3601      3553      3552      3600      3602
      3553      3552      3600      3603      3554      3552      3600      3601
      3554      3552      3600      3602      3554      3552      3600      3603
      3555      3558      3561      3562      3555      3558      3561      3563
      3555      3558      3561      3564      3556      3555      3558      3559
      3556      3555      3558      3560      3556      3555      3558      3561
      3557      3555      3558      3559      3557      3555      3558      3560
      3557      3555      3558      3561      3558      3561      3564      3565
      3558      3561      3564      3566      3558      3561      3564      3567
      3559      3558      3561      3562      3559      3558      3561      3563
      3559      3558      3561      3564      3560      3558      3561      3562
      3560      3558      3561      3563      3560      3558      3561      3564
      3561      3564      3567      3568      3561      3564      3567      3569
      3561      3564      3567      3570      3562      3561      3564      3565
      3562      3561      3564      3566      3562      3561      3564      3567
      3563      3561      3564      3565      3563      3561      3564      3566
      3563      3561      3564      3567      3564      3567      3570      3571
      3564      3567      3570      3572      3564      3567      3570      3573
      3565      3564      3567      3568      3565      3564      3567      3569
      3565      3564      3567      3570      3566      3564      3567      3568
      3566      3564      3567      3569      3566      3564      3567      3570
      3567      3570      3573      3574      3567      3570      3573      3575
      3568      3567      3570      3571      3568      3567      3570      3572
      3568      3567      3570      3573      3569      3567      3570      3571
      3569      3567      3570      3572      3569      3567      3570      3573
      3570      3573      3575      3576      3570      3573      3575      3577
      3571      3570      3573      3574      3571      3570      3573      3575
      3572      3570      3573      3574      3572      3570      3573      3575
      3573      3575      3577      3578      3573      3575      3577      3579
      3573      3575      3577      3580      3574      3573      3575      3576
      3574      3573      3575      3577      3575      3577      3580      3581
      3575      3577      3580      3582      3576      3575      3577      3578
      3576      3575      3577      3579      3576      3575      3577      3580
      3577      3580      3582      3583      3577      3580      3582      3584
      3578      3577      3580      3581      3578      3577      3580      3582
      3579      3577      3580      3581      3579      3577      3580      3582
      3580      3582      3584      3585      3580      3582      3584      3586
      3580      3582      3584      3587      3581      3580      3582      3583
      3581      3580      3582      3584      3582      3584      3587      3588
      3582      3584      3587      3589      3582      3584      3587      3590
      3583      3582      3584      3585      3583      3582      3584      3586
      3583      3582      3584      3587      3584      3587      3590      3591
      3584      3587      3590      3592      3584      3587      3590      3593
      3585      3584      3587      3588      3585      3584      3587      3589
      3585      3584      3587      3590      3586      3584      3587      3588
      3586      3584      3587      3589      3586      3584      3587      3590
      3587      3590      3593      3594      3587      3590      3593      3595
      3587      3590      3593      3596      3588      3587      3590      3591
      3588      3587      3590      3592      3588      3587      3590      3593
      3589      3587      3590      3591      3589      3587      3590      3592
      3589      3587      3590      3593      3590      3593      3596      3597
      3590      3593      3596      3598      3590      3593      3596      3599
      3591      3590      3593      3594      3591      3590      3593      3595
      3591      3590      3593      3596      3592      3590      3593      3594
      3592      3590      3593      3595      3592      3590      3593      3596
      3594      3593      3596      3597      3594      3593      3596      3598
      3594      3593      3596      3599      3595      3593      3596      3597
      3595      3593      3596      3598      3595      3593      3596      3599
      3600      3603      3606      3607      3600      3603      3606      3608
      3600      3603      3606      3609      3601      3600      3603      3604
      3601      3600      3603      3605      3601      3600      3603      3606
      3602      3600      3603      3604      3602      3600      3603      3605
      3602      3600      3603      3606      3603      3606      3609      3610
      3603      3606      3609      3611      3603      3606      3609      3612
      3604      3603      3606      3607      3604      3603      3606      3608
      3604      3603      3606      3609      3605      3603      3606      3607
      3605      3603      3606      3608      3605      3603      3606      3609
      3606      3609      3612      3613      3606      3609      3612      3614
      3606      3609      3612      3615      3607      3606      3609      3610
      3607      3606      3609      3611      3607      3606      3609      3612
      3608      3606      3609      3610      3608      3606      3609      3611
      3608      3606      3609      3612      3609      3612      3615      3616
      3609      3612      3615      3617      3609      3612      3615      3618
      3610      3609      3612      3613      3610      3609      3612      3614
      3610      3609      3612      3615      3611      3609      3612      3613
      3611      3609      3612      3614      3611      3609      3612      3615
      3612      3615      3618      3619      3612      3615      3618      3620
      3612      3615      3618      3621      3613      3612      3615      3616
      3613      3612      3615      3617      3613      3612      3615      3618
      3614      3612      3615      3616      3614      3612      3615      3617
      3614      3612      3615      3618      3615      3618      3621      3622
      3615      3618      3621      3623      3615      3618      3621      3624
      3616      3615      3618      3619      3616      3615      3618      3620
      3616      3615      3618      3621      3617      3615      3618      3619
      3617      3615      3618      3620      3617      3615      3618      3621
      3618      3621      3624      3625      3618      3621      3624      3626
      3618      3621      3624      3627      3619      3618      3621      3622
      3619      3618      3621      3623      3619      3618      3621      3624
      3620      3618      3621      3622      3620      3618      3621      3623
      3620      3618      3621      3624      3621      3624      3627      3628
      3621      3624      3627      3629      3621      3624      3627      3630
      3622      3621      3624      3625      3622      3621      3624      3626
      3622      3621      3624      3627      3623      3621      3624      3625
      3623      3621      3624      3626      3623      3621      3624      3627
      3624      3627      3630      3631      3624      3627      3630      3632
      3624      3627      3630      3633      3625      3624      3627      3628
      3625      3624      3627      3629      3625      3624      3627      3630
      3626      3624      3627      3628      3626      3624      3627      3629
      3626      3624      3627      3630      3627      3630      3633      3634
      3627      3630      3633      3635      3627      3630      3633      3636
      3628      3627      3630      3631      3628      3627      3630      3632
      3628      3627      3630      3633      3629      3627      3630      3631
      3629      3627      3630      3632      3629      3627      3630      3633
      3630      3633      3636      3637      3630      3633      3636      3638
      3630      3633      3636      3639      3631      3630      3633      3634
      3631      3630      3633      3635      3631      3630      3633      3636
      3632      3630      3633      3634      3632      3630      3633      3635
      3632      3630      3633      3636      3633      3636      3639      3640
      3633      3636      3639      3641      3633      3636      3639      3642
      3634      3633      3636      3637      3634      3633      3636      3638
      3634      3633      3636      3639      3635      3633      3636      3637
      3635      3633      3636      3638      3635      3633      3636      3639
      3636      3639      3642      3643      3636      3639      3642      3644
      3636      3639      3642      3645      3637      3636      3639      3640
      3637      3636      3639      3641      3637      3636      3639      3642
      3638      3636      3639      3640      3638      3636      3639      3641
      3638      3636      3639      3642      3639      3642      3645      3646
      3639      3642      3645      3647      3639      3642      3645      3648
      3640      3639      3642      3643      3640      3639      3642      3644
      3640      3639      3642      3645      3641      3639      3642      3643
      3641      3639      3642      3644      3641      3639      3642      3645
      3643      3642      3645      3646      3643      3642      3645      3647
      3643      3642      3645      3648      3644      3642      3645      3646
      3644      3642      3645      3647      3644      3642      3645      3648
      3649      3653      3656      3657      3649      3653      3656      3687
      3649      3695      3692      3687      3649      3695      3692      3693
      3649      3695      3692      3694      3650      3649      3651      3652
      3650      3649      3653      3654      3650      3649      3653      3655
      3650      3649      3653      3656      3650      3649      3695      3692
      3650      3649      3695      3696      3650      3649      3695      3697
      3651      3649      3653      3654      3651      3649      3653      3655
      3651      3649      3653      3656      3651      3649      3695      3692
      3651      3649      3695      3696      3651      3649      3695      3697
      3652      3651      3649      3653      3652      3651      3649      3695
      3653      3649      3695      3692      3653      3649      3695      3696
      3653      3649      3695      3697      3653      3656      3657      3658
      3653      3656      3657      3659      3653      3656      3687      3685
      3653      3656      3687      3688      3653      3656      3687      3692
      3654      3653      3649      3695      3654      3653      3656      3657
      3654      3653      3656      3687      3655      3653      3649      3695
      3655      3653      3656      3657      3655      3653      3656      3687
      3656      3653      3649      3695      3656      3657      3659      3660
      3656      3657      3659      3661      3656      3657      3659      3662
      3656      3687      3685      3662      3656      3687      3685      3682
      3656      3687      3685      3686      3656      3687      3688      3689
      3656      3687      3688      3690      3656      3687      3688      3691
      3656      3687      3692      3693      3656      3687      3692      3694
      3656      3687      3692      3695      3657      3656      3687      3685
      3657      3656      3687      3688      3657      3656      3687      3692
      3657      3659      3662      3663      3657      3659      3662      3664
      3657      3659      3662      3685      3658      3657      3656      3687
      3658      3657      3659      3660      3658      3657      3659      3661
      3658      3657      3659      3662      3659      3657      3656      3687
      3659      3662      3664      3665      3659      3662      3664      3666
      3659      3662      3664      3674      3659      3662      3685      3682
      3659      3662      3685      3686      3659      3662      3685      3687
      3660      3659      3662      3663      3660      3659      3662      3664
      3660      3659      3662      3685      3661      3659      3662      3663
      3661      3659      3662      3664      3661      3659      3662      3685
      3662      3664      3666      3667      3662      3664      3666      3668
      3662      3664      3666      3669      3662      3664      3674      3672
      3662      3664      3674      3675      3662      3664      3674      3679
      3662      3685      3682      3679      3662      3685      3682      3683
      3662      3685      3682      3684      3662      3685      3687      3688
      3662      3685      3687      3692      3663      3662      3664      3665
      3663      3662      3664      3666      3663      3662      3664      3674
      3663      3662      3685      3682      3663      3662      3685      3686
      3663      3662      3685      3687      3664      3662      3685      3682
      3664      3662      3685      3686      3664      3662      3685      3687
      3664      3666      3669      3670      3664      3666      3669      3671
      3664      3666      3669      3672      3664      3674      3672      3669
      3664      3674      3672      3673      3664      3674      3672      3698
      3664      3674      3675      3676      3664      3674      3675      3677
      3664      3674      3675      3678      3664      3674      3679      3680
      3664      3674      3679      3681      3664      3674      3679      3682
      3665      3664      3662      3685      3665      3664      3666      3667
      3665      3664      3666      3668      3665      3664      3666      3669
      3665      3664      3674      3672      3665      3664      3674      3675
      3665      3664      3674      3679      3666      3664      3662      3685
      3666      3664      3674      3672      3666      3664      3674      3675
      3666      3664      3674      3679      3666      3669      3672      3673
      3666      3669      3672      3674      3666      3669      3672      3698
      3667      3666      3664      3674      3667      3666      3669      3670
      3667      3666      3669      3671      3667      3666      3669      3672
      3668      3666      3664      3674      3668      3666      3669      3670
      3668      3666      3669      3671      3668      3666      3669      3672
      3669      3666      3664      3674      3669      3672      3674      3675
      3669      3672      3674      3679      3669      3672      3698      3699
      3669      3672      3698      3700      3669      3672      3698      3704
      3670      3669      3672      3673      3670      3669      3672      3674
      3670      3669      3672      3698      3671      3669      3672      3673
      3671      3669      3672      3674      3671      3669      3672      3698
      3672      3674      3675      3676      3672      3674      3675      3677
      3672      3674      3675      3678      3672      3674      3679      3680
      3672      3674      3679      3681      3672      3674      3679      3682
      3672      3698      3700      3701      3672      3698      3700      3702
      3672      3698      3700      3703      3672      3698      3704      3705
      3672      3698      3704      3706      3672      3698      3704      3707
      3673      3672      3674      3675      3673      3672      3674      3679
      3673      3672      3698      3699      3673      3672      3698      3700
      3673      3672      3698      3704      3674      3664      3662      3685
      3674      3672      3698      3699      3674      3672      3698      3700
      3674      3672      3698      3704      3674      3679      3682      3683
      3674      3679      3682      3684      3674      3679      3682      3685
      3675      3674      3672      3698      3675      3674      3679      3680
      3675      3674      3679      3681      3675      3674      3679      3682
      3676      3675      3674      3679      3677      3675      3674      3679
      3678      3675      3674      3679      3679      3674      3672      3698
      3679      3682      3685      3686      3679      3682      3685      3687
      3680      3679      3682      3683      3680      3679      3682      3684
      3680      3679      3682      3685      3681      3679      3682      3683
      3681      3679      3682      3684      3681      3679      3682      3685
      3682      3685      3687      3688      3682      3685      3687      3692
      3683      3682      3685      3686      3683      3682      3685      3687
      3684      3682      3685      3686      3684      3682      3685      3687
      3685      3687      3688      3689      3685      3687      3688      3690
      3685      3687      3688      3691      3685      3687      3692      3693
      3685      3687      3692      3694      3685      3687      3692      3695
      3686      3685      3687      3688      3686      3685      3687      3692
      3687      3692      3695      3696      3687      3692      3695      3697
      3688      3687      3692      3693      3688      3687      3692      3694
      3688      3687      3692      3695      3689      3688      3687      3692
      3690      3688      3687      3692      3691      3688      3687      3692
      3693      3692      3695      3696      3693      3692      3695      3697
      3694      3692      3695      3696      3694      3692      3695      3697
      3698      3704      3707      3708      3698      3704      3707      3709
      3698      3704      3707      3710      3699      3698      3700      3701
      3699      3698      3700      3702      3699      3698      3700      3703
      3699      3698      3704      3705      3699      3698      3704      3706
      3699      3698      3704      3707      3700      3698      3704      3705
      3700      3698      3704      3706      3700      3698      3704      3707
      3701      3700      3698      3704      3702      3700      3698      3704
      3703      3700      3698      3704      3704      3707      3710      3711
      3704      3707      3710      3712      3704      3707      3710      3713
      3705      3704      3707      3708      3705      3704      3707      3709
      3705      3704      3707      3710      3706      3704      3707      3708
      3706      3704      3707      3709      3706      3704      3707      3710
      3707      3710      3713      3714      3707      3710      3713      3715
      3707      3710      3713      3719      3708      3707      3710      3711
      3708      3707      3710      3712      3708      3707      3710      3713
      3709      3707      3710      3711      3709      3707      3710      3712
      3709      3707      3710      3713      3710      3713      3715      3716
      3710      3713      3715      3717      3710      3713      3715      3718
      3710      3713      3719      3720      3710      3713      3719      3721
      3710      3713      3719      3722      3711      3710      3713      3714
      3711      3710      3713      3715      3711      3710      3713      3719
      3712      3710      3713      3714      3712      3710      3713      3715
      3712      3710      3713      3719      3714      3713      3715      3716
      3714      3713      3715      3717      3714      3713      3715      3718
      3714      3713      3719      3720      3714      3713      3719      3721
      3714      3713      3719      3722      3715      3713      3719      3720
      3715      3713      3719      3721      3715      3713      3719      3722
      3716      3715      3713      3719      3717      3715      3713      3719
      3718      3715      3713      3719      3723      3727      3730      3731
      3723      3727      3730      3761      3723      3769      3766      3761
      3723      3769      3766      3767      3723      3769      3766      3768
      3724      3723      3725      3726      3724      3723      3727      3728
      3724      3723      3727      3729      3724      3723      3727      3730
      3724      3723      3769      3766      3724      3723      3769      3770
      3724      3723      3769      3771      3725      3723      3727      3728
      3725      3723      3727      3729      3725      3723      3727      3730
      3725      3723      3769      3766      3725      3723      3769      3770
      3725      3723      3769      3771      3726      3725      3723      3727
      3726      3725      3723      3769      3727      3723      3769      3766
      3727      3723      3769      3770      3727      3723      3769      3771
      3727      3730      3731      3732      3727      3730      3731      3733
      3727      3730      3761      3759      3727      3730      3761      3762
      3727      3730      3761      3766      3728      3727      3723      3769
      3728      3727      3730      3731      3728      3727      3730      3761
      3729      3727      3723      3769      3729      3727      3730      3731
      3729      3727      3730      3761      3730      3727      3723      3769
      3730      3731      3733      3734      3730      3731      3733      3735
      3730      3731      3733      3736      3730      3761      3759      3736
      3730      3761      3759      3756      3730      3761      3759      3760
      3730      3761      3762      3763      3730      3761      3762      3764
      3730      3761      3762      3765      3730      3761      3766      3767
      3730      3761      3766      3768      3730      3761      3766      3769
      3731      3730      3761      3759      3731      3730      3761      3762
      3731      3730      3761      3766      3731      3733      3736      3737
      3731      3733      3736      3738      3731      3733      3736      3759
      3732      3731      3730      3761      3732      3731      3733      3734
      3732      3731      3733      3735      3732      3731      3733      3736
      3733      3731      3730      3761      3733      3736      3738      3739
      3733      3736      3738      3740      3733      3736      3738      3748
      3733      3736      3759      3756      3733      3736      3759      3760
      3733      3736      3759      3761      3734      3733      3736      3737
      3734      3733      3736      3738      3734      3733      3736      3759
      3735      3733      3736      3737      3735      3733      3736      3738
      3735      3733      3736      3759      3736      3738      3740      3741
      3736      3738      3740      3742      3736      3738      3740      3743
      3736      3738      3748      3746      3736      3738      3748      3749
      3736      3738      3748      3753      3736      3759      3756      3753
      3736      3759      3756      3757      3736      3759      3756      3758
      3736      3759      3761      3762      3736      3759      3761      3766
      3737      3736      3738      3739      3737      3736      3738      3740
      3737      3736      3738      3748      3737      3736      3759      3756
      3737      3736      3759      3760      3737      3736      3759      3761
      3738      3736      3759      3756      3738      3736      3759      3760
      3738      3736      3759      3761      3738      3740      3743      3744
      3738      3740      3743      3745      3738      3740      3743      3746
      3738      3748      3746      3743      3738      3748      3746      3747
      3738      3748      3746      3772      3738      3748      3749      3750
      3738      3748      3749      3751      3738      3748      3749      3752
      3738      3748      3753      3754      3738      3748      3753      3755
      3738      3748      3753      3756      3739      3738      3736      3759
      3739      3738      3740      3741      3739      3738      3740      3742
      3739      3738      3740      3743      3739      3738      3748      3746
      3739      3738      3748      3749      3739      3738      3748      3753
      3740      3738      3736      3759      3740      3738      3748      3746
      3740      3738      3748      3749      3740      3738      3748      3753
      3740      3743      3746      3747      3740      3743      3746      3748
      3740      3743      3746      3772      3741      3740      3738      3748
      3741      3740      3743      3744      3741      3740      3743      3745
      3741      3740      3743      3746      3742      3740      3738      3748
      3742      3740      3743      3744      3742      3740      3743      3745
      3742      3740      3743      3746      3743      3740      3738      3748
      3743      3746      3748      3749      3743      3746      3748      3753
      3743      3746      3772      3773      3743      3746      3772      3774
      3743      3746      3772      3778      3744      3743      3746      3747
      3744      3743      3746      3748      3744      3743      3746      3772
      3745      3743      3746      3747      3745      3743      3746      3748
      3745      3743      3746      3772      3746      3748      3749      3750
      3746      3748      3749      3751      3746      3748      3749      3752
      3746      3748      3753      3754      3746      3748      3753      3755
      3746      3748      3753      3756      3746      3772      3774      3775
      3746      3772      3774      3776      3746      3772      3774      3777
      3746      3772      3778      3779      3746      3772      3778      3780
      3746      3772      3778      3781      3747      3746      3748      3749
      3747      3746      3748      3753      3747      3746      3772      3773
      3747      3746      3772      3774      3747      3746      3772      3778
      3748      3738      3736      3759      3748      3746      3772      3773
      3748      3746      3772      3774      3748      3746      3772      3778
      3748      3753      3756      3757      3748      3753      3756      3758
      3748      3753      3756      3759      3749      3748      3746      3772
      3749      3748      3753      3754      3749      3748      3753      3755
      3749      3748      3753      3756      3750      3749      3748      3753
      3751      3749      3748      3753      3752      3749      3748      3753
      3753      3748      3746      3772      3753      3756      3759      3760
      3753      3756      3759      3761      3754      3753      3756      3757
      3754      3753      3756      3758      3754      3753      3756      3759
      3755      3753      3756      3757      3755      3753      3756      3758
      3755      3753      3756      3759      3756      3759      3761      3762
      3756      3759      3761      3766      3757      3756      3759      3760
      3757      3756      3759      3761      3758      3756      3759      3760
      3758      3756      3759      3761      3759      3761      3762      3763
      3759      3761      3762      3764      3759      3761      3762      3765
      3759      3761      3766      3767      3759      3761      3766      3768
      3759      3761      3766      3769      3760      3759      3761      3762
      3760      3759      3761      3766      3761      3766      3769      3770
      3761      3766      3769      3771      3762      3761      3766      3767
      3762      3761      3766      3768      3762      3761      3766      3769
      3763      3762      3761      3766      3764      3762      3761      3766
      3765      3762      3761      3766      3767      3766      3769      3770
      3767      3766      3769      3771      3768      3766      3769      3770
      3768      3766      3769      3771      3772      3778      3781      3782
      3772      3778      3781      3783      3772      3778      3781      3784
      3773      3772      3774      3775      3773      3772      3774      3776
      3773      3772      3774      3777      3773      3772      3778      3779
      3773      3772      3778      3780      3773      3772      3778      3781
      3774      3772      3778      3779      3774      3772      3778      3780
      3774      3772      3778      3781      3775      3774      3772      3778
      3776      3774      3772      3778      3777      3774      3772      3778
      3778      3781      3784      3785      3778      3781      3784      3786
      3778      3781      3784      3787      3779      3778      3781      3782
      3779      3778      3781      3783      3779      3778      3781      3784
      3780      3778      3781      3782      3780      3778      3781      3783
      3780      3778      3781      3784      3781      3784      3787      3788
      3781      3784      3787      3789      3781      3784      3787      3793
      3782      3781      3784      3785      3782      3781      3784      3786
      3782      3781      3784      3787      3783      3781      3784      3785
      3783      3781      3784      3786      3783      3781      3784      3787
      3784      3787      3789      3790      3784      3787      3789      3791
      3784      3787      3789      3792      3784      3787      3793      3794
      3784      3787      3793      3795      3784      3787      3793      3796
      3785      3784      3787      3788      3785      3784      3787      3789
      3785      3784      3787      3793      3786      3784      3787      3788
      3786      3784      3787      3789      3786      3784      3787      3793
      3788      3787      3789      3790      3788      3787      3789      3791
      3788      3787      3789      3792      3788      3787      3793      3794
      3788      3787      3793      3795      3788      3787      3793      3796
      3789      3787      3793      3794      3789      3787      3793      3795
      3789      3787      3793      3796      3790      3789      3787      3793
      3791      3789      3787      3793      3792      3789      3787      3793
      3797      3801      3803      3804      3797      3801      3803      3805
      3797      3801      3806      3807      3797      3801      3806      3808
      3797      3801      3806      3812      3798      3797      3801      3802
      3798      3797      3801      3803      3798      3797      3801      3806
      3799      3797      3801      3802      3799      3797      3801      3803
      3799      3797      3801      3806      3800      3797      3801      3802
      3800      3797      3801      3803      3800      3797      3801      3806
      3801      3806      3812      3809      3802      3801      3803      3804
      3802      3801      3803      3805      3802      3801      3806      3807
      3802      3801      3806      3808      3802      3801      3806      3812
      3803      3801      3806      3807      3803      3801      3806      3808
      3803      3801      3806      3812      3804      3803      3801      3806
      3805      3803      3801      3806      3806      3812      3809      3810
      3806      3812      3809      3811      3806      3812      3809      3813
      3807      3806      3812      3809      3808      3806      3812      3809
      3809      3813      3814      3815      3809      3813      3814      3816
      3809      3813      3814      3817      3810      3809      3813      3814
      3811      3809      3813      3814      3812      3809      3813      3814
      3813      3814      3817      3818      3813      3814      3817      3819
      3813      3814      3817      3825      3814      3817      3819      3820
      3814      3817      3825      3826      3814      3817      3825      3827
      3814      3817      3825      3828      3815      3814      3817      3818
      3815      3814      3817      3819      3815      3814      3817      3825
      3816      3814      3817      3818      3816      3814      3817      3819
      3816      3814      3817      3825      3817      3819      3820      3821
      3817      3819      3820      3822      3817      3825      3828      3829
      3818      3817      3819      3820      3818      3817      3825      3826
      3818      3817      3825      3827      3818      3817      3825      3828
      3819      3817      3825      3826      3819      3817      3825      3827
      3819      3817      3825      3828      3819      3820      3822      3823
      3819      3820      3822      3824      3819      3820      3822      3834
      3820      3819      3817      3825      3820      3822      3834      3835
      3820      3822      3834      3836      3820      3822      3834      3837
      3821      3820      3822      3823      3821      3820      3822      3824
      3821      3820      3822      3834      3822      3834      3837      3838
      3822      3834      3837      3839      3822      3834      3837      3840
      3823      3822      3834      3835      3823      3822      3834      3836
      3823      3822      3834      3837      3824      3822      3834      3835
      3824      3822      3834      3836      3824      3822      3834      3837
      3825      3828      3829      3830      3825      3828      3829      3831
      3826      3825      3828      3829      3827      3825      3828      3829
      3828      3829      3831      3832      3828      3829      3831      3833
      3828      3829      3831      3881      3829      3831      3881      3882
      3829      3831      3881      3883      3829      3831      3881      3884
      3830      3829      3831      3832      3830      3829      3831      3833
      3830      3829      3831      3881      3831      3881      3884      3885
      3831      3881      3884      3886      3831      3881      3884      3887
      3832      3831      3881      3882      3832      3831      3881      3883
      3832      3831      3881      3884      3833      3831      3881      3882
      3833      3831      3881      3883      3833      3831      3881      3884
      3834      3837      3840      3841      3834      3837      3840      3842
      3835      3834      3837      3838      3835      3834      3837      3839
      3835      3834      3837      3840      3836      3834      3837      3838
      3836      3834      3837      3839      3836      3834      3837      3840
      3837      3840      3842      3843      3837      3840      3842      3844
      3838      3837      3840      3841      3838      3837      3840      3842
      3839      3837      3840      3841      3839      3837      3840      3842
      3840      3842      3844      3845      3840      3842      3844      3846
      3840      3842      3844      3847      3841      3840      3842      3843
      3841      3840      3842      3844      3842      3844      3847      3848
      3842      3844      3847      3849      3843      3842      3844      3845
      3843      3842      3844      3846      3843      3842      3844      3847
      3844      3847      3849      3850      3844      3847      3849      3851
      3845      3844      3847      3848      3845      3844      3847      3849
      3846      3844      3847      3848      3846      3844      3847      3849
      3847      3849      3851      3852      3847      3849      3851      3853
      3847      3849      3851      3854      3848      3847      3849      3850
      3848      3847      3849      3851      3849      3851      3854      3855
      3849      3851      3854      3856      3850      3849      3851      3852
      3850      3849      3851      3853      3850      3849      3851      3854
      3851      3854      3856      3857      3851      3854      3856      3858
      3852      3851      3854      3855      3852      3851      3854      3856
      3853      3851      3854      3855      3853      3851      3854      3856
      3854      3856      3858      3859      3854      3856      3858      3860
      3854      3856      3858      3861      3855      3854      3856      3857
      3855      3854      3856      3858      3856      3858      3861      3862
      3856      3858      3861      3863      3857      3856      3858      3859
      3857      3856      3858      3860      3857      3856      3858      3861
      3858      3861      3863      3864      3858      3861      3863      3865
      3859      3858      3861      3862      3859      3858      3861      3863
      3860      3858      3861      3862      3860      3858      3861      3863
      3861      3863      3865      3866      3861      3863      3865      3867
      3861      3863      3865      3868      3862      3861      3863      3864
      3862      3861      3863      3865      3863      3865      3868      3869
      3863      3865      3868      3870      3863      3865      3868      3871
      3864      3863      3865      3866      3864      3863      3865      3867
      3864      3863      3865      3868      3865      3868      3871      3872
      3865      3868      3871      3873      3865      3868      3871      3874
      3866      3865      3868      3869      3866      3865      3868      3870
      3866      3865      3868      3871      3867      3865      3868      3869
      3867      3865      3868      3870      3867      3865      3868      3871
      3868      3871      3874      3875      3868      3871      3874      3876
      3868      3871      3874      3877      3869      3868      3871      3872
      3869      3868      3871      3873      3869      3868      3871      3874
      3870      3868      3871      3872      3870      3868      3871      3873
      3870      3868      3871      3874      3871      3874      3877      3878
      3871      3874      3877      3879      3871      3874      3877      3880
      3872      3871      3874      3875      3872      3871      3874      3876
      3872      3871      3874      3877      3873      3871      3874      3875
      3873      3871      3874      3876      3873      3871      3874      3877
      3875      3874      3877      3878      3875      3874      3877      3879
      3875      3874      3877      3880      3876      3874      3877      3878
      3876      3874      3877      3879      3876      3874      3877      3880
      3881      3884      3887      3888      3881      3884      3887      3889
      3881      3884      3887      3890      3882      3881      3884      3885
      3882      3881      3884      3886      3882      3881      3884      3887
      3883      3881      3884      3885      3883      3881      3884      3886
      3883      3881      3884      3887      3884      3887      3890      3891
      3884      3887      3890      3892      3884      3887      3890      3893
      3885      3884      3887      3888      3885      3884      3887      3889
      3885      3884      3887      3890      3886      3884      3887      3888
      3886      3884      3887      3889      3886      3884      3887      3890
      3887      3890      3893      3894      3887      3890      3893      3895
      3887      3890      3893      3896      3888      3887      3890      3891
      3888      3887      3890      3892      3888      3887      3890      3893
      3889      3887      3890      3891      3889      3887      3890      3892
      3889      3887      3890      3893      3890      3893      3896      3897
      3890      3893      3896      3898      3890      3893      3896      3899
      3891      3890      3893      3894      3891      3890      3893      3895
      3891      3890      3893      3896      3892      3890      3893      3894
      3892      3890      3893      3895      3892      3890      3893      3896
      3893      3896      3899      3900      3893      3896      3899      3901
      3893      3896      3899      3902      3894      3893      3896      3897
      3894      3893      3896      3898      3894      3893      3896      3899
      3895      3893      3896      3897      3895      3893      3896      3898
      3895      3893      3896      3899      3896      3899      3902      3903
      3896      3899      3902      3904      3896      3899      3902      3905
      3897      3896      3899      3900      3897      3896      3899      3901
      3897      3896      3899      3902      3898      3896      3899      3900
      3898      3896      3899      3901      3898      3896      3899      3902
      3899      3902      3905      3906      3899      3902      3905      3907
      3899      3902      3905      3908      3900      3899      3902      3903
      3900      3899      3902      3904      3900      3899      3902      3905
      3901      3899      3902      3903      3901      3899      3902      3904
      3901      3899      3902      3905      3902      3905      3908      3909
      3902      3905      3908      3910      3902      3905      3908      3911
      3903      3902      3905      3906      3903      3902      3905      3907
      3903      3902      3905      3908      3904      3902      3905      3906
      3904      3902      3905      3907      3904      3902      3905      3908
      3905      3908      3911      3912      3905      3908      3911      3913
      3905      3908      3911      3914      3906      3905      3908      3909
      3906      3905      3908      3910      3906      3905      3908      3911
      3907      3905      3908      3909      3907      3905      3908      3910
      3907      3905      3908      3911      3908      3911      3914      3915
      3908      3911      3914      3916      3908      3911      3914      3917
      3909      3908      3911      3912      3909      3908      3911      3913
      3909      3908      3911      3914      3910      3908      3911      3912
      3910      3908      3911      3913      3910      3908      3911      3914
      3911      3914      3917      3918      3911      3914      3917      3919
      3911      3914      3917      3920      3912      3911      3914      3915
      3912      3911      3914      3916      3912      3911      3914      3917
      3913      3911      3914      3915      3913      3911      3914      3916
      3913      3911      3914      3917      3914      3917      3920      3921
      3914      3917      3920      3922      3914      3917      3920      3923
      3915      3914      3917      3918      3915      3914      3917      3919
      3915      3914      3917      3920      3916      3914      3917      3918
      3916      3914      3917      3919      3916      3914      3917      3920
      3917      3920      3923      3924      3917      3920      3923      3925
      3917      3920      3923      3926      3918      3917      3920      3921
      3918      3917      3920      3922      3918      3917      3920      3923
      3919      3917      3920      3921      3919      3917      3920      3922
      3919      3917      3920      3923      3920      3923      3926      3927
      3920      3923      3926      3928      3920      3923      3926      3929
      3921      3920      3923      3924      3921      3920      3923      3925
      3921      3920      3923      3926      3922      3920      3923      3924
      3922      3920      3923      3925      3922      3920      3923      3926
      3924      3923      3926      3927      3924      3923      3926      3928
      3924      3923      3926      3929      3925      3923      3926      3927
      3925      3923      3926      3928      3925      3923      3926      3929
      3930      3934      3937      3938      3930      3934      3937      3939
      3930      3934      3937      3943      3931      3930      3934      3935
      3931      3930      3934      3936      3931      3930      3934      3937
      3932      3930      3934      3935      3932      3930      3934      3936
      3932      3930      3934      3937      3933      3930      3934      3935
      3933      3930      3934      3936      3933      3930      3934      3937
      3934      3937      3943      3940      3935      3934      3937      3938
      3935      3934      3937      3939      3935      3934      3937      3943
      3936      3934      3937      3938      3936      3934      3937      3939
      3936      3934      3937      3943      3937      3943      3940      3941
      3937      3943      3940      3942      3937      3943      3940      3944
      3938      3937      3943      3940      3939      3937      3943      3940
      3940      3944      3945      3946      3940      3944      3945      3947
      3940      3944      3945      3948      3941      3940      3944      3945
      3942      3940      3944      3945      3943      3940      3944      3945
      3944      3945      3948      3949      3944      3945      3948      3950
      3944      3945      3948      3956      3945      3948      3950      3951
      3945      3948      3956      3957      3945      3948      3956      3958
      3945      3948      3956      3959      3946      3945      3948      3949
      3946      3945      3948      3950      3946      3945      3948      3956
      3947      3945      3948      3949      3947      3945      3948      3950
      3947      3945      3948      3956      3948      3950      3951      3952
      3948      3950      3951      3953      3948      3956      3959      3960
      3949      3948      3950      3951      3949      3948      3956      3957
      3949      3948      3956      3958      3949      3948      3956      3959
      3950      3948      3956      3957      3950      3948      3956      3958
      3950      3948      3956      3959      3950      3951      3953      3954
      3950      3951      3953      3955      3950      3951      3953      3965
      3951      3950      3948      3956      3951      3953      3965      3966
      3951      3953      3965      3967      3951      3953      3965      3968
      3952      3951      3953      3954      3952      3951      3953      3955
      3952      3951      3953      3965      3953      3965      3968      3969
      3953      3965      3968      3970      3953      3965      3968      3971
      3954      3953      3965      3966      3954      3953      3965      3967
      3954      3953      3965      3968      3955      3953      3965      3966
      3955      3953      3965      3967      3955      3953      3965      3968
      3956      3959      3960      3961      3956      3959      3960      3962
      3957      3956      3959      3960      3958      3956      3959      3960
      3959      3960      3962      3963      3959      3960      3962      3964
      3959      3960      3962      4012      3960      3962      4012      4013
      3960      3962      4012      4014      3960      3962      4012      4015
      3961      3960      3962      3963      3961      3960      3962      3964
      3961      3960      3962      4012      3962      4012      4015      4016
      3962      4012      4015      4017      3962      4012      4015      4018
      3963      3962      4012      4013      3963      3962      4012      4014
      3963      3962      4012      4015      3964      3962      4012      4013
      3964      3962      4012      4014      3964      3962      4012      4015
      3965      3968      3971      3972      3965      3968      3971      3973
      3966      3965      3968      3969      3966      3965      3968      3970
      3966      3965      3968      3971      3967      3965      3968      3969
      3967      3965      3968      3970      3967      3965      3968      3971
      3968      3971      3973      3974      3968      3971      3973      3975
      3969      3968      3971      3972      3969      3968      3971      3973
      3970      3968      3971      3972      3970      3968      3971      3973
      3971      3973      3975      3976      3971      3973      3975      3977
      3971      3973      3975      3978      3972      3971      3973      3974
      3972      3971      3973      3975      3973      3975      3978      3979
      3973      3975      3978      3980      3974      3973      3975      3976
      3974      3973      3975      3977      3974      3973      3975      3978
      3975      3978      3980      3981      3975      3978      3980      3982
      3976      3975      3978      3979      3976      3975      3978      3980
      3977      3975      3978      3979      3977      3975      3978      3980
      3978      3980      3982      3983      3978      3980      3982      3984
      3978      3980      3982      3985      3979      3978      3980      3981
      3979      3978      3980      3982      3980      3982      3985      3986
      3980      3982      3985      3987      3981      3980      3982      3983
      3981      3980      3982      3984      3981      3980      3982      3985
      3982      3985      3987      3988      3982      3985      3987      3989
      3983      3982      3985      3986      3983      3982      3985      3987
      3984      3982      3985      3986      3984      3982      3985      3987
      3985      3987      3989      3990      3985      3987      3989      3991
      3985      3987      3989      3992      3986      3985      3987      3988
      3986      3985      3987      3989      3987      3989      3992      3993
      3987      3989      3992      3994      3988      3987      3989      3990
      3988      3987      3989      3991      3988      3987      3989      3992
      3989      3992      3994      3995      3989      3992      3994      3996
      3990      3989      3992      3993      3990      3989      3992      3994
      3991      3989      3992      3993      3991      3989      3992      3994
      3992      3994      3996      3997      3992      3994      3996      3998
      3992      3994      3996      3999      3993      3992      3994      3995
      3993      3992      3994      3996      3994      3996      3999      4000
      3994      3996      3999      4001      3994      3996      3999      4002
      3995      3994      3996      3997      3995      3994      3996      3998
      3995      3994      3996      3999      3996      3999      4002      4003
      3996      3999      4002      4004      3996      3999      4002      4005
      3997      3996      3999      4000      3997      3996      3999      4001
      3997      3996      3999      4002      3998      3996      3999      4000
      3998      3996      3999      4001      3998      3996      3999      4002
      3999      4002      4005      4006      3999      4002      4005      4007
      3999      4002      4005      4008      4000      3999      4002      4003
      4000      3999      4002      4004      4000      3999      4002      4005
      4001      3999      4002      4003      4001      3999      4002      4004
      4001      3999      4002      4005      4002      4005      4008      4009
      4002      4005      4008      4010      4002      4005      4008      4011
      4003      4002      4005      4006      4003      4002      4005      4007
      4003      4002      4005      4008      4004      4002      4005      4006
      4004      4002      4005      4007      4004      4002      4005      4008
      4006      4005      4008      4009      4006      4005      4008      4010
      4006      4005      4008      4011      4007      4005      4008      4009
      4007      4005      4008      4010      4007      4005      4008      4011
      4012      4015      4018      4019      4012      4015      4018      4020
      4012      4015      4018      4021      4013      4012      4015      4016
      4013      4012      4015      4017      4013      4012      4015      4018
      4014      4012      4015      4016      4014      4012      4015      4017
      4014      4012      4015      4018      4015      4018      4021      4022
      4015      4018      4021      4023      4015      4018      4021      4024
      4016      4015      4018      4019      4016      4015      4018      4020
      4016      4015      4018      4021      4017      4015      4018      4019
      4017      4015      4018      4020      4017      4015      4018      4021
      4018      4021      4024      4025      4018      4021      4024      4026
      4018      4021      4024      4027      4019      4018      4021      4022
      4019      4018      4021      4023      4019      4018      4021      4024
      4020      4018      4021      4022      4020      4018      4021      4023
      4020      4018      4021      4024      4021      4024      4027      4028
      4021      4024      4027      4029      4021      4024      4027      4030
      4022      4021      4024      4025      4022      4021      4024      4026
      4022      4021      4024      4027      4023      4021      4024      4025
      4023      4021      4024      4026      4023      4021      4024      4027
      4024      4027      4030      4031      4024      4027      4030      4032
      4024      4027      4030      4033      4025      4024      4027      4028
      4025      4024      4027      4029      4025      4024      4027      4030
      4026      4024      4027      4028      4026      4024      4027      4029
      4026      4024      4027      4030      4027      4030      4033      4034
      4027      4030      4033      4035      4027      4030      4033      4036
      4028      4027      4030      4031      4028      4027      4030      4032
      4028      4027      4030      4033      4029      4027      4030      4031
      4029      4027      4030      4032      4029      4027      4030      4033
      4030      4033      4036      4037      4030      4033      4036      4038
      4030      4033      4036      4039      4031      4030      4033      4034
      4031      4030      4033      4035      4031      4030      4033      4036
      4032      4030      4033      4034      4032      4030      4033      4035
      4032      4030      4033      4036      4033      4036      4039      4040
      4033      4036      4039      4041      4033      4036      4039      4042
      4034      4033      4036      4037      4034      4033      4036      4038
      4034      4033      4036      4039      4035      4033      4036      4037
      4035      4033      4036      4038      4035      4033      4036      4039
      4036      4039      4042      4043      4036      4039      4042      4044
      4036      4039      4042      4045      4037      4036      4039      4040
      4037      4036      4039      4041      4037      4036      4039      4042
      4038      4036      4039      4040      4038      4036      4039      4041
      4038      4036      4039      4042      4039      4042      4045      4046
      4039      4042      4045      4047      4039      4042      4045      4048
      4040      4039      4042      4043      4040      4039      4042      4044
      4040      4039      4042      4045      4041      4039      4042      4043
      4041      4039      4042      4044      4041      4039      4042      4045
      4042      4045      4048      4049      4042      4045      4048      4050
      4042      4045      4048      4051      4043      4042      4045      4046
      4043      4042      4045      4047      4043      4042      4045      4048
      4044      4042      4045      4046      4044      4042      4045      4047
      4044      4042      4045      4048      4045      4048      4051      4052
      4045      4048      4051      4053      4045      4048      4051      4054
      4046      4045      4048      4049      4046      4045      4048      4050
      4046      4045      4048      4051      4047      4045      4048      4049
      4047      4045      4048      4050      4047      4045      4048      4051
      4048      4051      4054      4055      4048      4051      4054      4056
      4048      4051      4054      4057      4049      4048      4051      4052
      4049      4048      4051      4053      4049      4048      4051      4054
      4050      4048      4051      4052      4050      4048      4051      4053
      4050      4048      4051      4054      4051      4054      4057      4058
      4051      4054      4057      4059      4051      4054      4057      4060
      4052      4051      4054      4055      4052      4051      4054      4056
      4052      4051      4054      4057      4053      4051      4054      4055
      4053      4051      4054      4056      4053      4051      4054      4057
      4055      4054      4057      4058      4055      4054      4057      4059
      4055      4054      4057      4060      4056      4054      4057      4058
      4056      4054      4057      4059      4056      4054      4057      4060
      4061      4065      4068      4069      4061      4065      4068      4099
      4061      4107      4104      4099      4061      4107      4104      4105
      4061      4107      4104      4106      4062      4061      4063      4064
      4062      4061      4065      4066      4062      4061      4065      4067
      4062      4061      4065      4068      4062      4061      4107      4104
      4062      4061      4107      4108      4062      4061      4107      4109
      4063      4061      4065      4066      4063      4061      4065      4067
      4063      4061      4065      4068      4063      4061      4107      4104
      4063      4061      4107      4108      4063      4061      4107      4109
      4064      4063      4061      4065      4064      4063      4061      4107
      4065      4061      4107      4104      4065      4061      4107      4108
      4065      4061      4107      4109      4065      4068      4069      4070
      4065      4068      4069      4071      4065      4068      4099      4097
      4065      4068      4099      4100      4065      4068      4099      4104
      4066      4065      4061      4107      4066      4065      4068      4069
      4066      4065      4068      4099      4067      4065      4061      4107
      4067      4065      4068      4069      4067      4065      4068      4099
      4068      4065      4061      4107      4068      4069      4071      4072
      4068      4069      4071      4073      4068      4069      4071      4074
      4068      4099      4097      4074      4068      4099      4097      4094
      4068      4099      4097      4098      4068      4099      4100      4101
      4068      4099      4100      4102      4068      4099      4100      4103
      4068      4099      4104      4105      4068      4099      4104      4106
      4068      4099      4104      4107      4069      4068      4099      4097
      4069      4068      4099      4100      4069      4068      4099      4104
      4069      4071      4074      4075      4069      4071      4074      4076
      4069      4071      4074      4097      4070      4069      4068      4099
      4070      4069      4071      4072      4070      4069      4071      4073
      4070      4069      4071      4074      4071      4069      4068      4099
      4071      4074      4076      4077      4071      4074      4076      4078
      4071      4074      4076      4086      4071      4074      4097      4094
      4071      4074      4097      4098      4071      4074      4097      4099
      4072      4071      4074      4075      4072      4071      4074      4076
      4072      4071      4074      4097      4073      4071      4074      4075
      4073      4071      4074      4076      4073      4071      4074      4097
      4074      4076      4078      4079      4074      4076      4078      4080
      4074      4076      4078      4081      4074      4076      4086      4084
      4074      4076      4086      4087      4074      4076      4086      4091
      4074      4097      4094      4091      4074      4097      4094      4095
      4074      4097      4094      4096      4074      4097      4099      4100
      4074      4097      4099      4104      4075      4074      4076      4077
      4075      4074      4076      4078      4075      4074      4076      4086
      4075      4074      4097      4094      4075      4074      4097      4098
      4075      4074      4097      4099      4076      4074      4097      4094
      4076      4074      4097      4098      4076      4074      4097      4099
      4076      4078      4081      4082      4076      4078      4081      4083
      4076      4078      4081      4084      4076      4086      4084      4081
      4076      4086      4084      4085      4076      4086      4084      4110
      4076      4086      4087      4088      4076      4086      4087      4089
      4076      4086      4087      4090      4076      4086      4091      4092
      4076      4086      4091      4093      4076      4086      4091      4094
      4077      4076      4074      4097      4077      4076      4078      4079
      4077      4076      4078      4080      4077      4076      4078      4081
      4077      4076      4086      4084      4077      4076      4086      4087
      4077      4076      4086      4091      4078      4076      4074      4097
      4078      4076      4086      4084      4078      4076      4086      4087
      4078      4076      4086      4091      4078      4081      4084      4085
      4078      4081      4084      4086      4078      4081      4084      4110
      4079      4078      4076      4086      4079      4078      4081      4082
      4079      4078      4081      4083      4079      4078      4081      4084
      4080      4078      4076      4086      4080      4078      4081      4082
      4080      4078      4081      4083      4080      4078      4081      4084
      4081      4078      4076      4086      4081      4084      4086      4087
      4081      4084      4086      4091      4081      4084      4110      4111
      4081      4084      4110      4112      4081      4084      4110      4116
      4082      4081      4084      4085      4082      4081      4084      4086
      4082      4081      4084      4110      4083      4081      4084      4085
      4083      4081      4084      4086      4083      4081      4084      4110
      4084      4086      4087      4088      4084      4086      4087      4089
      4084      4086      4087      4090      4084      4086      4091      4092
      4084      4086      4091      4093      4084      4086      4091      4094
      4084      4110      4112      4113      4084      4110      4112      4114
      4084      4110      4112      4115      4084      4110      4116      4117
      4084      4110      4116      4118      4084      4110      4116      4119
      4085      4084      4086      4087      4085      4084      4086      4091
      4085      4084      4110      4111      4085      4084      4110      4112
      4085      4084      4110      4116      4086      4076      4074      4097
      4086      4084      4110      4111      4086      4084      4110      4112
      4086      4084      4110      4116      4086      4091      4094      4095
      4086      4091      4094      4096      4086      4091      4094      4097
      4087      4086      4084      4110      4087      4086      4091      4092
      4087      4086      4091      4093      4087      4086      4091      4094
      4088      4087      4086      4091      4089      4087      4086      4091
      4090      4087      4086      4091      4091      4086      4084      4110
      4091      4094      4097      4098      4091      4094      4097      4099
      4092      4091      4094      4095      4092      4091      4094      4096
      4092      4091      4094      4097      4093      4091      4094      4095
      4093      4091      4094      4096      4093      4091      4094      4097
      4094      4097      4099      4100      4094      4097      4099      4104
      4095      4094      4097      4098      4095      4094      4097      4099
      4096      4094      4097      4098      4096      4094      4097      4099
      4097      4099      4100      4101      4097      4099      4100      4102
      4097      4099      4100      4103      4097      4099      4104      4105
      4097      4099      4104      4106      4097      4099      4104      4107
      4098      4097      4099      4100      4098      4097      4099      4104
      4099      4104      4107      4108      4099      4104      4107      4109
      4100      4099      4104      4105      4100      4099      4104      4106
      4100      4099      4104      4107      4101      4100      4099      4104
      4102      4100      4099      4104      4103      4100      4099      4104
      4105      4104      4107      4108      4105      4104      4107      4109
      4106      4104      4107      4108      4106      4104      4107      4109
      4110      4116      4119      4120      4110      4116      4119      4121
      4110      4116      4119      4122      4111      4110      4112      4113
      4111      4110      4112      4114      4111      4110      4112      4115
      4111      4110      4116      4117      4111      4110      4116      4118
      4111      4110      4116      4119      4112      4110      4116      4117
      4112      4110      4116      4118      4112      4110      4116      4119
      4113      4112      4110      4116      4114      4112      4110      4116
      4115      4112      4110      4116      4116      4119      4122      4123
      4116      4119      4122      4124      4116      4119      4122      4125
      4117      4116      4119      4120      4117      4116      4119      4121
      4117      4116      4119      4122      4118      4116      4119      4120
      4118      4116      4119      4121      4118      4116      4119      4122
      4119      4122      4125      4126      4119      4122      4125      4127
      4119      4122      4125      4131      4120      4119      4122      4123
      4120      4119      4122      4124      4120      4119      4122      4125
      4121      4119      4122      4123      4121      4119      4122      4124
      4121      4119      4122      4125      4122      4125      4127      4128
      4122      4125      4127      4129      4122      4125      4127      4130
      4122      4125      4131      4132      4122      4125      4131      4133
      4122      4125      4131      4134      4123      4122      4125      4126
      4123      4122      4125      4127      4123      4122      4125      4131
      4124      4122      4125      4126      4124      4122      4125      4127
      4124      4122      4125      4131      4126      4125      4127      4128
      4126      4125      4127      4129      4126      4125      4127      4130
      4126      4125      4131      4132      4126      4125      4131      4133
      4126      4125      4131      4134      4127      4125      4131      4132
      4127      4125      4131      4133      4127      4125      4131      4134
      4128      4127      4125      4131      4129      4127      4125      4131
      4130      4127      4125      4131      4135      4139      4141      4142
      4135      4139      4141      4143      4135      4139      4144      4145
      4135      4139      4144      4146      4135      4139      4144      4150
      4136      4135      4139      4140      4136      4135      4139      4141
      4136      4135      4139      4144      4137      4135      4139      4140
      4137      4135      4139      4141      4137      4135      4139      4144
      4138      4135      4139      4140      4138      4135      4139      4141
      4138      4135      4139      4144      4139      4144      4150      4147
      4140      4139      4141      4142      4140      4139      4141      4143
      4140      4139      4144      4145      4140      4139      4144      4146
      4140      4139      4144      4150      4141      4139      4144      4145
      4141      4139      4144      4146      4141      4139      4144      4150
      4142      4141      4139      4144      4143      4141      4139      4144
      4144      4150      4147      4148      4144      4150      4147      4149
      4144      4150      4147      4151      4145      4144      4150      4147
      4146      4144      4150      4147      4147      4151      4152      4153
      4147      4151      4152      4154      4147      4151      4152      4155
      4148      4147      4151      4152      4149      4147      4151      4152
      4150      4147      4151      4152      4151      4152      4155      4156
      4151      4152      4155      4157      4151      4152      4155      4163
      4152      4155      4157      4158      4152      4155      4163      4164
      4152      4155      4163      4165      4152      4155      4163      4166
      4153      4152      4155      4156      4153      4152      4155      4157
      4153      4152      4155      4163      4154      4152      4155      4156
      4154      4152      4155      4157      4154      4152      4155      4163
      4155      4157      4158      4159      4155      4157      4158      4160
      4155      4163      4166      4167      4156      4155      4157      4158
      4156      4155      4163      4164      4156      4155      4163      4165
      4156      4155      4163      4166      4157      4155      4163      4164
      4157      4155      4163      4165      4157      4155      4163      4166
      4157      4158      4160      4161      4157      4158      4160      4162
      4157      4158      4160      4172      4158      4157      4155      4163
      4158      4160      4172      4173      4158      4160      4172      4174
      4158      4160      4172      4175      4159      4158      4160      4161
      4159      4158      4160      4162      4159      4158      4160      4172
      4160      4172      4175      4176      4160      4172      4175      4177
      4160      4172      4175      4178      4161      4160      4172      4173
      4161      4160      4172      4174      4161      4160      4172      4175
      4162      4160      4172      4173      4162      4160      4172      4174
      4162      4160      4172      4175      4163      4166      4167      4168
      4163      4166      4167      4169      4164      4163      4166      4167
      4165      4163      4166      4167      4166      4167      4169      4170
      4166      4167      4169      4171      4166      4167      4169      4219
      4167      4169      4219      4220      4167      4169      4219      4221
      4167      4169      4219      4222      4168      4167      4169      4170
      4168      4167      4169      4171      4168      4167      4169      4219
      4169      4219      4222      4223      4169      4219      4222      4224
      4169      4219      4222      4225      4170      4169      4219      4220
      4170      4169      4219      4221      4170      4169      4219      4222
      4171      4169      4219      4220      4171      4169      4219      4221
      4171      4169      4219      4222      4172      4175      4178      4179
      4172      4175      4178      4180      4173      4172      4175      4176
      4173      4172      4175      4177      4173      4172      4175      4178
      4174      4172      4175      4176      4174      4172      4175      4177
      4174      4172      4175      4178      4175      4178      4180      4181
      4175      4178      4180      4182      4176      4175      4178      4179
      4176      4175      4178      4180      4177      4175      4178      4179
      4177      4175      4178      4180      4178      4180      4182      4183
      4178      4180      4182      4184      4178      4180      4182      4185
      4179      4178      4180      4181      4179      4178      4180      4182
      4180      4182      4185      4186      4180      4182      4185      4187
      4181      4180      4182      4183      4181      4180      4182      4184
      4181      4180      4182      4185      4182      4185      4187      4188
      4182      4185      4187      4189      4183      4182      4185      4186
      4183      4182      4185      4187      4184      4182      4185      4186
      4184      4182      4185      4187      4185      4187      4189      4190
      4185      4187      4189      4191      4185      4187      4189      4192
      4186      4185      4187      4188      4186      4185      4187      4189
      4187      4189      4192      4193      4187      4189      4192      4194
      4188      4187      4189      4190      4188      4187      4189      4191
      4188      4187      4189      4192      4189      4192      4194      4195
      4189      4192      4194      4196      4190      4189      4192      4193
      4190      4189      4192      4194      4191      4189      4192      4193
      4191      4189      4192      4194      4192      4194      4196      4197
      4192      4194      4196      4198      4192      4194      4196      4199
      4193      4192      4194      4195      4193      4192      4194      4196
      4194      4196      4199      4200      4194      4196      4199      4201
      4195      4194      4196      4197      4195      4194      4196      4198
      4195      4194      4196      4199      4196      4199      4201      4202
      4196      4199      4201      4203      4197      4196      4199      4200
      4197      4196      4199      4201      4198      4196      4199      4200
      4198      4196      4199      4201      4199      4201      4203      4204
      4199      4201      4203      4205      4199      4201      4203      4206
      4200      4199      4201      4202      4200      4199      4201      4203
      4201      4203      4206      4207      4201      4203      4206      4208
      4201      4203      4206      4209      4202      4201      4203      4204
      4202      4201      4203      4205      4202      4201      4203      4206
      4203      4206      4209      4210      4203      4206      4209      4211
      4203      4206      4209      4212      4204      4203      4206      4207
      4204      4203      4206      4208      4204      4203      4206      4209
      4205      4203      4206      4207      4205      4203      4206      4208
      4205      4203      4206      4209      4206      4209      4212      4213
      4206      4209      4212      4214      4206      4209      4212      4215
      4207      4206      4209      4210      4207      4206      4209      4211
      4207      4206      4209      4212      4208      4206      4209      4210
      4208      4206      4209      4211      4208      4206      4209      4212
      4209      4212      4215      4216      4209      4212      4215      4217
      4209      4212      4215      4218      4210      4209      4212      4213
      4210      4209      4212      4214      4210      4209      4212      4215
      4211      4209      4212      4213      4211      4209      4212      4214
      4211      4209      4212      4215      4213      4212      4215      4216
      4213      4212      4215      4217      4213      4212      4215      4218
      4214      4212      4215      4216      4214      4212      4215      4217
      4214      4212      4215      4218      4219      4222      4225      4226
      4219      4222      4225      4227      4219      4222      4225      4228
      4220      4219      4222      4223      4220      4219      4222      4224
      4220      4219      4222      4225      4221      4219      4222      4223
      4221      4219      4222      4224      4221      4219      4222      4225
      4222      4225      4228      4229      4222      4225      4228      4230
      4222      4225      4228      4231      4223      4222      4225      4226
      4223      4222      4225      4227      4223      4222      4225      4228
      4224      4222      4225      4226      4224      4222      4225      4227
      4224      4222      4225      4228      4225      4228      4231      4232
      4225      4228      4231      4233      4225      4228      4231      4234
      4226      4225      4228      4229      4226      4225      4228      4230
      4226      4225      4228      4231      4227      4225      4228      4229
      4227      4225      4228      4230      4227      4225      4228      4231
      4228      4231      4234      4235      4228      4231      4234      4236
      4228      4231      4234      4237      4229      4228      4231      4232
      4229      4228      4231      4233      4229      4228      4231      4234
      4230      4228      4231      4232      4230      4228      4231      4233
      4230      4228      4231      4234      4231      4234      4237      4238
      4231      4234      4237      4239      4231      4234      4237      4240
      4232      4231      4234      4235      4232      4231      4234      4236
      4232      4231      4234      4237      4233      4231      4234      4235
      4233      4231      4234      4236      4233      4231      4234      4237
      4234      4237      4240      4241      4234      4237      4240      4242
      4234      4237      4240      4243      4235      4234      4237      4238
      4235      4234      4237      4239      4235      4234      4237      4240
      4236      4234      4237      4238      4236      4234      4237      4239
      4236      4234      4237      4240      4237      4240      4243      4244
      4237      4240      4243      4245      4237      4240      4243      4246
      4238      4237      4240      4241      4238      4237      4240      4242
      4238      4237      4240      4243      4239      4237      4240      4241
      4239      4237      4240      4242      4239      4237      4240      4243
      4240      4243      4246      4247      4240      4243      4246      4248
      4240      4243      4246      4249      4241      4240      4243      4244
      4241      4240      4243      4245      4241      4240      4243      4246
      4242      4240      4243      4244      4242      4240      4243      4245
      4242      4240      4243      4246      4243      4246      4249      4250
      4243      4246      4249      4251      4243      4246      4249      4252
      4244      4243      4246      4247      4244      4243      4246      4248
      4244      4243      4246      4249      4245      4243      4246      4247
      4245      4243      4246      4248      4245      4243      4246      4249
      4246      4249      4252      4253      4246      4249      4252      4254
      4246      4249      4252      4255      4247      4246      4249      4250
      4247      4246      4249      4251      4247      4246      4249      4252
      4248      4246      4249      4250      4248      4246      4249      4251
      4248      4246      4249      4252      4249      4252      4255      4256
      4249      4252      4255      4257      4249      4252      4255      4258
      4250      4249      4252      4253      4250      4249      4252      4254
      4250      4249      4252      4255      4251      4249      4252      4253
      4251      4249      4252      4254      4251      4249      4252      4255
      4252      4255      4258      4259      4252      4255      4258      4260
      4252      4255      4258      4261      4253      4252      4255      4256
      4253      4252      4255      4257      4253      4252      4255      4258
      4254      4252      4255      4256      4254      4252      4255      4257
      4254      4252      4255      4258      4255      4258      4261      4262
      4255      4258      4261      4263      4255      4258      4261      4264
      4256      4255      4258      4259      4256      4255      4258      4260
      4256      4255      4258      4261      4257      4255      4258      4259
      4257      4255      4258      4260      4257      4255      4258      4261
      4258      4261      4264      4265      4258      4261      4264      4266
      4258      4261      4264      4267      4259      4258      4261      4262
      4259      4258      4261      4263      4259      4258      4261      4264
      4260      4258      4261      4262      4260      4258      4261      4263
      4260      4258      4261      4264      4262      4261      4264      4265
      4262      4261      4264      4266      4262      4261      4264      4267
      4263      4261      4264      4265      4263      4261      4264      4266
      4263      4261      4264      4267      4268      4281      4284      4285
      4268      4281      4284      4286      4268      4281      4284      4290
      4269      4268      4273      4274      4269      4268      4273      4275
      4269      4268      4273      4276      4269      4268      4277      4278
      4269      4268      4277      4279      4269      4268      4277      4280
      4269      4268      4281      4282      4269      4268      4281      4283
      4269      4268      4281      4284      4270      4269      4268      4273
      4270      4269      4268      4277      4270      4269      4268      4281
      4271      4269      4268      4273      4271      4269      4268      4277
      4271      4269      4268      4281      4272      4269      4268      4273
      4272      4269      4268      4277      4272      4269      4268      4281
      4273      4268      4277      4278      4273      4268      4277      4279
      4273      4268      4277      4280      4273      4268      4281      4282
      4273      4268      4281      4283      4273      4268      4281      4284
      4274      4273      4268      4277      4274      4273      4268      4281
      4275      4273      4268      4277      4275      4273      4268      4281
      4276      4273      4268      4277      4276      4273      4268      4281
      4277      4268      4281      4282      4277      4268      4281      4283
      4277      4268      4281      4284      4278      4277      4268      4281
      4279      4277      4268      4281      4280      4277      4268      4281
      4281      4284      4290      4287      4282      4281      4284      4285
      4282      4281      4284      4286      4282      4281      4284      4290
      4283      4281      4284      4285      4283      4281      4284      4286
      4283      4281      4284      4290      4284      4290      4287      4288
      4284      4290      4287      4289      4284      4290      4287      4291
      4285      4284      4290      4287      4286      4284      4290      4287
      4287      4291      4292      4293      4287      4291      4292      4294
      4287      4291      4292      4295      4288      4287      4291      4292
      4289      4287      4291      4292      4290      4287      4291      4292
      4291      4292      4295      4296      4291      4292      4295      4297
      4291      4292      4295      4303      4292      4295      4297      4298
      4292      4295      4303      4304      4292      4295      4303      4305
      4292      4295      4303      4306      4293      4292      4295      4296
      4293      4292      4295      4297      4293      4292      4295      4303
      4294      4292      4295      4296      4294      4292      4295      4297
      4294      4292      4295      4303      4295      4297      4298      4299
      4295      4297      4298      4300      4295      4303      4306      4307
      4296      4295      4297      4298      4296      4295      4303      4304
      4296      4295      4303      4305      4296      4295      4303      4306
      4297      4295      4303      4304      4297      4295      4303      4305
      4297      4295      4303      4306      4297      4298      4300      4301
      4297      4298      4300      4302      4297      4298      4300      4312
      4298      4297      4295      4303      4298      4300      4312      4313
      4298      4300      4312      4314      4298      4300      4312      4315
      4299      4298      4300      4301      4299      4298      4300      4302
      4299      4298      4300      4312      4300      4312      4315      4316
      4300      4312      4315      4317      4300      4312      4315      4318
      4301      4300      4312      4313      4301      4300      4312      4314
      4301      4300      4312      4315      4302      4300      4312      4313
      4302      4300      4312      4314      4302      4300      4312      4315
      4303      4306      4307      4308      4303      4306      4307      4309
      4304      4303      4306      4307      4305      4303      4306      4307
      4306      4307      4309      4310      4306      4307      4309      4311
      4306      4307      4309      4357      4307      4309      4357      4358
      4307      4309      4357      4359      4307      4309      4357      4360
      4308      4307      4309      4310      4308      4307      4309      4311
      4308      4307      4309      4357      4309      4357      4360      4361
      4309      4357      4360      4362      4309      4357      4360      4363
      4310      4309      4357      4358      4310      4309      4357      4359
      4310      4309      4357      4360      4311      4309      4357      4358
      4311      4309      4357      4359      4311      4309      4357      4360
      4312      4315      4318      4319      4312      4315      4318      4320
      4312      4315      4318      4321      4313      4312      4315      4316
      4313      4312      4315      4317      4313      4312      4315      4318
      4314      4312      4315      4316      4314      4312      4315      4317
      4314      4312      4315      4318      4315      4318      4321      4322
      4315      4318      4321      4323      4315      4318      4321      4324
      4316      4315      4318      4319      4316      4315      4318      4320
      4316      4315      4318      4321      4317      4315      4318      4319
      4317      4315      4318      4320      4317      4315      4318      4321
      4318      4321      4324      4325      4318      4321      4324      4326
      4318      4321      4324      4327      4319      4318      4321      4322
      4319      4318      4321      4323      4319      4318      4321      4324
      4320      4318      4321      4322      4320      4318      4321      4323
      4320      4318      4321      4324      4321      4324      4327      4328
      4321      4324      4327      4329      4321      4324      4327      4330
      4322      4321      4324      4325      4322      4321      4324      4326
      4322      4321      4324      4327      4323      4321      4324      4325
      4323      4321      4324      4326      4323      4321      4324      4327
      4324      4327      4330      4331      4324      4327      4330      4332
      4325      4324      4327      4328      4325      4324      4327      4329
      4325      4324      4327      4330      4326      4324      4327      4328
      4326      4324      4327      4329      4326      4324      4327      4330
      4327      4330      4332      4333      4327      4330      4332      4334
      4328      4327      4330      4331      4328      4327      4330      4332
      4329      4327      4330      4331      4329      4327      4330      4332
      4330      4332      4334      4335      4330      4332      4334      4336
      4330      4332      4334      4337      4331      4330      4332      4333
      4331      4330      4332      4334      4332      4334      4337      4338
      4332      4334      4337      4339      4333      4332      4334      4335
      4333      4332      4334      4336      4333      4332      4334      4337
      4334      4337      4339      4340      4334      4337      4339      4341
      4335      4334      4337      4338      4335      4334      4337      4339
      4336      4334      4337      4338      4336      4334      4337      4339
      4337      4339      4341      4342      4337      4339      4341      4343
      4337      4339      4341      4344      4338      4337      4339      4340
      4338      4337      4339      4341      4339      4341      4344      4345
      4339      4341      4344      4346      4339      4341      4344      4347
      4340      4339      4341      4342      4340      4339      4341      4343
      4340      4339      4341      4344      4341      4344      4347      4348
      4341      4344      4347      4349      4341      4344      4347      4350
      4342      4341      4344      4345      4342      4341      4344      4346
      4342      4341      4344      4347      4343      4341      4344      4345
      4343      4341      4344      4346      4343      4341      4344      4347
      4344      4347      4350      4351      4344      4347      4350      4352
      4344      4347      4350      4353      4345      4344      4347      4348
      4345      4344      4347      4349      4345      4344      4347      4350
      4346      4344      4347      4348      4346      4344      4347      4349
      4346      4344      4347      4350      4347      4350      4353      4354
      4347      4350      4353      4355      4347      4350      4353      4356
      4348      4347      4350      4351      4348      4347      4350      4352
      4348      4347      4350      4353      4349      4347      4350      4351
      4349      4347      4350      4352      4349      4347      4350      4353
      4351      4350      4353      4354      4351      4350      4353      4355
      4351      4350      4353      4356      4352      4350      4353      4354
      4352      4350      4353      4355      4352      4350      4353      4356
      4357      4360      4363      4364      4357      4360      4363      4365
      4357      4360      4363      4366      4358      4357      4360      4361
      4358      4357      4360      4362      4358      4357      4360      4363
      4359      4357      4360      4361      4359      4357      4360      4362
      4359      4357      4360      4363      4360      4363      4366      4367
      4360      4363      4366      4368      4360      4363      4366      4369
      4361      4360      4363      4364      4361      4360      4363      4365
      4361      4360      4363      4366      4362      4360      4363      4364
      4362      4360      4363      4365      4362      4360      4363      4366
      4363      4366      4369      4370      4363      4366      4369      4371
      4363      4366      4369      4372      4364      4363      4366      4367
      4364      4363      4366      4368      4364      4363      4366      4369
      4365      4363      4366      4367      4365      4363      4366      4368
      4365      4363      4366      4369      4366      4369      4372      4373
      4366      4369      4372      4374      4366      4369      4372      4375
      4367      4366      4369      4370      4367      4366      4369      4371
      4367      4366      4369      4372      4368      4366      4369      4370
      4368      4366      4369      4371      4368      4366      4369      4372
      4369      4372      4375      4376      4369      4372      4375      4377
      4369      4372      4375      4378      4370      4369      4372      4373
      4370      4369      4372      4374      4370      4369      4372      4375
      4371      4369      4372      4373      4371      4369      4372      4374
      4371      4369      4372      4375      4372      4375      4378      4379
      4372      4375      4378      4380      4372      4375      4378      4381
      4373      4372      4375      4376      4373      4372      4375      4377
      4373      4372      4375      4378      4374      4372      4375      4376
      4374      4372      4375      4377      4374      4372      4375      4378
      4375      4378      4381      4382      4375      4378      4381      4383
      4375      4378      4381      4384      4376      4375      4378      4379
      4376      4375      4378      4380      4376      4375      4378      4381
      4377      4375      4378      4379      4377      4375      4378      4380
      4377      4375      4378      4381      4378      4381      4384      4385
      4378      4381      4384      4386      4378      4381      4384      4387
      4379      4378      4381      4382      4379      4378      4381      4383
      4379      4378      4381      4384      4380      4378      4381      4382
      4380      4378      4381      4383      4380      4378      4381      4384
      4381      4384      4387      4388      4381      4384      4387      4389
      4381      4384      4387      4390      4382      4381      4384      4385
      4382      4381      4384      4386      4382      4381      4384      4387
      4383      4381      4384      4385      4383      4381      4384      4386
      4383      4381      4384      4387      4384      4387      4390      4391
      4384      4387      4390      4392      4384      4387      4390      4393
      4385      4384      4387      4388      4385      4384      4387      4389
      4385      4384      4387      4390      4386      4384      4387      4388
      4386      4384      4387      4389      4386      4384      4387      4390
      4387      4390      4393      4394      4387      4390      4393      4395
      4387      4390      4393      4396      4388      4387      4390      4391
      4388      4387      4390      4392      4388      4387      4390      4393
      4389      4387      4390      4391      4389      4387      4390      4392
      4389      4387      4390      4393      4390      4393      4396      4397
      4390      4393      4396      4398      4390      4393      4396      4399
      4391      4390      4393      4394      4391      4390      4393      4395
      4391      4390      4393      4396      4392      4390      4393      4394
      4392      4390      4393      4395      4392      4390      4393      4396
      4393      4396      4399      4400      4393      4396      4399      4401
      4393      4396      4399      4402      4394      4393      4396      4397
      4394      4393      4396      4398      4394      4393      4396      4399
      4395      4393      4396      4397      4395      4393      4396      4398
      4395      4393      4396      4399      4396      4399      4402      4403
      4396      4399      4402      4404      4396      4399      4402      4405
      4397      4396      4399      4400      4397      4396      4399      4401
      4397      4396      4399      4402      4398      4396      4399      4400
      4398      4396      4399      4401      4398      4396      4399      4402
      4400      4399      4402      4403      4400      4399      4402      4404
      4400      4399      4402      4405      4401      4399      4402      4403
      4401      4399      4402      4404      4401      4399      4402      4405
      4406      4407      4422      4423      4406      4407      4422      4424
      4406      4407      4422      4428      4407      4406      4410      4411
      4407      4406      4410      4412      4407      4406      4410      4413
      4407      4406      4414      4415      4407      4406      4414      4416
      4407      4406      4414      4417      4407      4406      4418      4419
      4407      4406      4418      4420      4407      4406      4418      4421
      4407      4422      4428      4425      4408      4407      4406      4410
      4408      4407      4406      4414      4408      4407      4406      4418
      4408      4407      4422      4423      4408      4407      4422      4424
      4408      4407      4422      4428      4409      4407      4406      4410
      4409      4407      4406      4414      4409      4407      4406      4418
      4409      4407      4422      4423      4409      4407      4422      4424
      4409      4407      4422      4428      4410      4406      4407      4422
      4410      4406      4414      4415      4410      4406      4414      4416
      4410      4406      4414      4417      4410      4406      4418      4419
      4410      4406      4418      4420      4410      4406      4418      4421
      4411      4410      4406      4414      4411      4410      4406      4418
      4412      4410      4406      4414      4412      4410      4406      4418
      4413      4410      4406      4414      4413      4410      4406      4418
      4414      4406      4407      4422      4414      4406      4418      4419
      4414      4406      4418      4420      4414      4406      4418      4421
      4415      4414      4406      4418      4416      4414      4406      4418
      4417      4414      4406      4418      4418      4406      4407      4422
      4422      4428      4425      4426      4422      4428      4425      4427
      4422      4428      4425      4429      4423      4422      4428      4425
      4424      4422      4428      4425      4425      4429      4430      4431
      4425      4429      4430      4432      4425      4429      4430      4433
      4426      4425      4429      4430      4427      4425      4429      4430
      4428      4425      4429      4430      4429      4430      4433      4434
      4429      4430      4433      4435      4429      4430      4433      4441
      4430      4433      4435      4436      4430      4433      4441      4442
      4430      4433      4441      4443      4430      4433      4441      4444
      4431      4430      4433      4434      4431      4430      4433      4435
      4431      4430      4433      4441      4432      4430      4433      4434
      4432      4430      4433      4435      4432      4430      4433      4441
      4433      4435      4436      4437      4433      4435      4436      4438
      4433      4441      4444      4445      4434      4433      4435      4436
      4434      4433      4441      4442      4434      4433      4441      4443
      4434      4433      4441      4444      4435      4433      4441      4442
      4435      4433      4441      4443      4435      4433      4441      4444
      4435      4436      4438      4439      4435      4436      4438      4440
      4435      4436      4438      4450      4436      4435      4433      4441
      4436      4438      4450      4451      4436      4438      4450      4452
      4436      4438      4450      4453      4437      4436      4438      4439
      4437      4436      4438      4440      4437      4436      4438      4450
      4438      4450      4453      4454      4438      4450      4453      4455
      4438      4450      4453      4456      4439      4438      4450      4451
      4439      4438      4450      4452      4439      4438      4450      4453
      4440      4438      4450      4451      4440      4438      4450      4452
      4440      4438      4450      4453      4441      4444      4445      4446
      4441      4444      4445      4447      4442      4441      4444      4445
      4443      4441      4444      4445      4444      4445      4447      4448
      4444      4445      4447      4449      4444      4445      4447      4497
      4445      4447      4497      4498      4445      4447      4497      4499
      4445      4447      4497      4500      4446      4445      4447      4448
      4446      4445      4447      4449      4446      4445      4447      4497
      4447      4497      4500      4501      4447      4497      4500      4502
      4447      4497      4500      4503      4448      4447      4497      4498
      4448      4447      4497      4499      4448      4447      4497      4500
      4449      4447      4497      4498      4449      4447      4497      4499
      4449      4447      4497      4500      4450      4453      4456      4457
      4450      4453      4456      4458      4451      4450      4453      4454
      4451      4450      4453      4455      4451      4450      4453      4456
      4452      4450      4453      4454      4452      4450      4453      4455
      4452      4450      4453      4456      4453      4456      4458      4459
      4453      4456      4458      4460      4454      4453      4456      4457
      4454      4453      4456      4458      4455      4453      4456      4457
      4455      4453      4456      4458      4456      4458      4460      4461
      4456      4458      4460      4462      4456      4458      4460      4463
      4457      4456      4458      4459      4457      4456      4458      4460
      4458      4460      4463      4464      4458      4460      4463      4465
      4459      4458      4460      4461      4459      4458      4460      4462
      4459      4458      4460      4463      4460      4463      4465      4466
      4460      4463      4465      4467      4461      4460      4463      4464
      4461      4460      4463      4465      4462      4460      4463      4464
      4462      4460      4463      4465      4463      4465      4467      4468
      4463      4465      4467      4469      4463      4465      4467      4470
      4464      4463      4465      4466      4464      4463      4465      4467
      4465      4467      4470      4471      4465      4467      4470      4472
      4466      4465      4467      4468      4466      4465      4467      4469
      4466      4465      4467      4470      4467      4470      4472      4473
      4467      4470      4472      4474      4468      4467      4470      4471
      4468      4467      4470      4472      4469      4467      4470      4471
      4469      4467      4470      4472      4470      4472      4474      4475
      4470      4472      4474      4476      4470      4472      4474      4477
      4471      4470      4472      4473      4471      4470      4472      4474
      4472      4474      4477      4478      4472      4474      4477      4479
      4473      4472      4474      4475      4473      4472      4474      4476
      4473      4472      4474      4477      4474      4477      4479      4480
      4474      4477      4479      4481      4475      4474      4477      4478
      4475      4474      4477      4479      4476      4474      4477      4478
      4476      4474      4477      4479      4477      4479      4481      4482
      4477      4479      4481      4483      4477      4479      4481      4484
      4478      4477      4479      4480      4478      4477      4479      4481
      4479      4481      4484      4485      4479      4481      4484      4486
      4479      4481      4484      4487      4480      4479      4481      4482
      4480      4479      4481      4483      4480      4479      4481      4484
      4481      4484      4487      4488      4481      4484      4487      4489
      4481      4484      4487      4490      4482      4481      4484      4485
      4482      4481      4484      4486      4482      4481      4484      4487
      4483      4481      4484      4485      4483      4481      4484      4486
      4483      4481      4484      4487      4484      4487      4490      4491
      4484      4487      4490      4492      4484      4487      4490      4493
      4485      4484      4487      4488      4485      4484      4487      4489
      4485      4484      4487      4490      4486      4484      4487      4488
      4486      4484      4487      4489      4486      4484      4487      4490
      4487      4490      4493      4494      4487      4490      4493      4495
      4487      4490      4493      4496      4488      4487      4490      4491
      4488      4487      4490      4492      4488      4487      4490      4493
      4489      4487      4490      4491      4489      4487      4490      4492
      4489      4487      4490      4493      4491      4490      4493      4494
      4491      4490      4493      4495      4491      4490      4493      4496
      4492      4490      4493      4494      4492      4490      4493      4495
      4492      4490      4493      4496      4497      4500      4503      4504
      4497      4500      4503      4505      4497      4500      4503      4506
      4498      4497      4500      4501      4498      4497      4500      4502
      4498      4497      4500      4503      4499      4497      4500      4501
      4499      4497      4500      4502      4499      4497      4500      4503
      4500      4503      4506      4507      4500      4503      4506      4508
      4500      4503      4506      4509      4501      4500      4503      4504
      4501      4500      4503      4505      4501      4500      4503      4506
      4502      4500      4503      4504      4502      4500      4503      4505
      4502      4500      4503      4506      4503      4506      4509      4510
      4503      4506      4509      4511      4503      4506      4509      4512
      4504      4503      4506      4507      4504      4503      4506      4508
      4504      4503      4506      4509      4505      4503      4506      4507
      4505      4503      4506      4508      4505      4503      4506      4509
      4506      4509      4512      4513      4506      4509      4512      4514
      4506      4509      4512      4515      4507      4506      4509      4510
      4507      4506      4509      4511      4507      4506      4509      4512
      4508      4506      4509      4510      4508      4506      4509      4511
      4508      4506      4509      4512      4509      4512      4515      4516
      4509      4512      4515      4517      4509      4512      4515      4518
      4510      4509      4512      4513      4510      4509      4512      4514
      4510      4509      4512      4515      4511      4509      4512      4513
      4511      4509      4512      4514      4511      4509      4512      4515
      4512      4515      4518      4519      4512      4515      4518      4520
      4512      4515      4518      4521      4513      4512      4515      4516
      4513      4512      4515      4517      4513      4512      4515      4518
      4514      4512      4515      4516      4514      4512      4515      4517
      4514      4512      4515      4518      4515      4518      4521      4522
      4515      4518      4521      4523      4515      4518      4521      4524
      4516      4515      4518      4519      4516      4515      4518      4520
      4516      4515      4518      4521      4517      4515      4518      4519
      4517      4515      4518      4520      4517      4515      4518      4521
      4518      4521      4524      4525      4518      4521      4524      4526
      4518      4521      4524      4527      4519      4518      4521      4522
      4519      4518      4521      4523      4519      4518      4521      4524
      4520      4518      4521      4522      4520      4518      4521      4523
      4520      4518      4521      4524      4521      4524      4527      4528
      4521      4524      4527      4529      4521      4524      4527      4530
      4522      4521      4524      4525      4522      4521      4524      4526
      4522      4521      4524      4527      4523      4521      4524      4525
      4523      4521      4524      4526      4523      4521      4524      4527
      4524      4527      4530      4531      4524      4527      4530      4532
      4524      4527      4530      4533      4525      4524      4527      4528
      4525      4524      4527      4529      4525      4524      4527      4530
      4526      4524      4527      4528      4526      4524      4527      4529
      4526      4524      4527      4530      4527      4530      4533      4534
      4527      4530      4533      4535      4527      4530      4533      4536
      4528      4527      4530      4531      4528      4527      4530      4532
      4528      4527      4530      4533      4529      4527      4530      4531
      4529      4527      4530      4532      4529      4527      4530      4533
      4530      4533      4536      4537      4530      4533      4536      4538
      4530      4533      4536      4539      4531      4530      4533      4534
      4531      4530      4533      4535      4531      4530      4533      4536
      4532      4530      4533      4534      4532      4530      4533      4535
      4532      4530      4533      4536      4533      4536      4539      4540
      4533      4536      4539      4541      4533      4536      4539      4542
      4534      4533      4536      4537      4534      4533      4536      4538
      4534      4533      4536      4539      4535      4533      4536      4537
      4535      4533      4536      4538      4535      4533      4536      4539
      4536      4539      4542      4543      4536      4539      4542      4544
      4536      4539      4542      4545      4537      4536      4539      4540
      4537      4536      4539      4541      4537      4536      4539      4542
      4538      4536      4539      4540      4538      4536      4539      4541
      4538      4536      4539      4542      4540      4539      4542      4543
      4540      4539      4542      4544      4540      4539      4542      4545
      4541      4539      4542      4543      4541      4539      4542      4544
      4541      4539      4542      4545      4546      4559      4562      4563
      4546      4559      4562      4564      4546      4559      4562      4568
      4547      4546      4551      4552      4547      4546      4551      4553
      4547      4546      4551      4554      4547      4546      4555      4556
      4547      4546      4555      4557      4547      4546      4555      4558
      4547      4546      4559      4560      4547      4546      4559      4561
      4547      4546      4559      4562      4548      4547      4546      4551
      4548      4547      4546      4555      4548      4547      4546      4559
      4549      4547      4546      4551      4549      4547      4546      4555
      4549      4547      4546      4559      4550      4547      4546      4551
      4550      4547      4546      4555      4550      4547      4546      4559
      4551      4546      4555      4556      4551      4546      4555      4557
      4551      4546      4555      4558      4551      4546      4559      4560
      4551      4546      4559      4561      4551      4546      4559      4562
      4552      4551      4546      4555      4552      4551      4546      4559
      4553      4551      4546      4555      4553      4551      4546      4559
      4554      4551      4546      4555      4554      4551      4546      4559
      4555      4546      4559      4560      4555      4546      4559      4561
      4555      4546      4559      4562      4556      4555      4546      4559
      4557      4555      4546      4559      4558      4555      4546      4559
      4559      4562      4568      4565      4560      4559      4562      4563
      4560      4559      4562      4564      4560      4559      4562      4568
      4561      4559      4562      4563      4561      4559      4562      4564
      4561      4559      4562      4568      4562      4568      4565      4566
      4562      4568      4565      4567      4562      4568      4565      4569
      4563      4562      4568      4565      4564      4562      4568      4565
      4565      4569      4570      4571      4565      4569      4570      4572
      4565      4569      4570      4573      4566      4565      4569      4570
      4567      4565      4569      4570      4568      4565      4569      4570
      4569      4570      4573      4574      4569      4570      4573      4575
      4569      4570      4573      4581      4570      4573      4575      4576
      4570      4573      4581      4582      4570      4573      4581      4583
      4570      4573      4581      4584      4571      4570      4573      4574
      4571      4570      4573      4575      4571      4570      4573      4581
      4572      4570      4573      4574      4572      4570      4573      4575
      4572      4570      4573      4581      4573      4575      4576      4577
      4573      4575      4576      4578      4573      4581      4584      4585
      4574      4573      4575      4576      4574      4573      4581      4582
      4574      4573      4581      4583      4574      4573      4581      4584
      4575      4573      4581      4582      4575      4573      4581      4583
      4575      4573      4581      4584      4575      4576      4578      4579
      4575      4576      4578      4580      4575      4576      4578      4590
      4576      4575      4573      4581      4576      4578      4590      4591
      4576      4578      4590      4592      4576      4578      4590      4593
      4577      4576      4578      4579      4577      4576      4578      4580
      4577      4576      4578      4590      4578      4590      4593      4594
      4578      4590      4593      4595      4578      4590      4593      4596
      4579      4578      4590      4591      4579      4578      4590      4592
      4579      4578      4590      4593      4580      4578      4590      4591
      4580      4578      4590      4592      4580      4578      4590      4593
      4581      4584      4585      4586      4581      4584      4585      4587
      4582      4581      4584      4585      4583      4581      4584      4585
      4584      4585      4587      4588      4584      4585      4587      4589
      4584      4585      4587      4635      4585      4587      4635      4636
      4585      4587      4635      4637      4585      4587      4635      4638
      4586      4585      4587      4588      4586      4585      4587      4589
      4586      4585      4587      4635      4587      4635      4638      4639
      4587      4635      4638      4640      4587      4635      4638      4641
      4588      4587      4635      4636      4588      4587      4635      4637
      4588      4587      4635      4638      4589      4587      4635      4636
      4589      4587      4635      4637      4589      4587      4635      4638
      4590      4593      4596      4597      4590      4593      4596      4598
      4590      4593      4596      4599      4591      4590      4593      4594
      4591      4590      4593      4595      4591      4590      4593      4596
      4592      4590      4593      4594      4592      4590      4593      4595
      4592      4590      4593      4596      4593      4596      4599      4600
      4593      4596      4599      4601      4593      4596      4599      4602
      4594      4593      4596      4597      4594      4593      4596      4598
      4594      4593      4596      4599      4595      4593      4596      4597
      4595      4593      4596      4598      4595      4593      4596      4599
      4596      4599      4602      4603      4596      4599      4602      4604
      4596      4599      4602      4605      4597      4596      4599      4600
      4597      4596      4599      4601      4597      4596      4599      4602
      4598      4596      4599      4600      4598      4596      4599      4601
      4598      4596      4599      4602      4599      4602      4605      4606
      4599      4602      4605      4607      4599      4602      4605      4608
      4600      4599      4602      4603      4600      4599      4602      4604
      4600      4599      4602      4605      4601      4599      4602      4603
      4601      4599      4602      4604      4601      4599      4602      4605
      4602      4605      4608      4609      4602      4605      4608      4610
      4603      4602      4605      4606      4603      4602      4605      4607
      4603      4602      4605      4608      4604      4602      4605      4606
      4604      4602      4605      4607      4604      4602      4605      4608
      4605      4608      4610      4611      4605      4608      4610      4612
      4606      4605      4608      4609      4606      4605      4608      4610
      4607      4605      4608      4609      4607      4605      4608      4610
      4608      4610      4612      4613      4608      4610      4612      4614
      4608      4610      4612      4615      4609      4608      4610      4611
      4609      4608      4610      4612      4610      4612      4615      4616
      4610      4612      4615      4617      4611      4610      4612      4613
      4611      4610      4612      4614      4611      4610      4612      4615
      4612      4615      4617      4618      4612      4615      4617      4619
      4613      4612      4615      4616      4613      4612      4615      4617
      4614      4612      4615      4616      4614      4612      4615      4617
      4615      4617      4619      4620      4615      4617      4619      4621
      4615      4617      4619      4622      4616      4615      4617      4618
      4616      4615      4617      4619      4617      4619      4622      4623
      4617      4619      4622      4624      4617      4619      4622      4625
      4618      4617      4619      4620      4618      4617      4619      4621
      4618      4617      4619      4622      4619      4622      4625      4626
      4619      4622      4625      4627      4619      4622      4625      4628
      4620      4619      4622      4623      4620      4619      4622      4624
      4620      4619      4622      4625      4621      4619      4622      4623
      4621      4619      4622      4624      4621      4619      4622      4625
      4622      4625      4628      4629      4622      4625      4628      4630
      4622      4625      4628      4631      4623      4622      4625      4626
      4623      4622      4625      4627      4623      4622      4625      4628
      4624      4622      4625      4626      4624      4622      4625      4627
      4624      4622      4625      4628      4625      4628      4631      4632
      4625      4628      4631      4633      4625      4628      4631      4634
      4626      4625      4628      4629      4626      4625      4628      4630
      4626      4625      4628      4631      4627      4625      4628      4629
      4627      4625      4628      4630      4627      4625      4628      4631
      4629      4628      4631      4632      4629      4628      4631      4633
      4629      4628      4631      4634      4630      4628      4631      4632
      4630      4628      4631      4633      4630      4628      4631      4634
      4635      4638      4641      4642      4635      4638      4641      4643
      4635      4638      4641      4644      4636      4635      4638      4639
      4636      4635      4638      4640      4636      4635      4638      4641
      4637      4635      4638      4639      4637      4635      4638      4640
      4637      4635      4638      4641      4638      4641      4644      4645
      4638      4641      4644      4646      4638      4641      4644      4647
      4639      4638      4641      4642      4639      4638      4641      4643
      4639      4638      4641      4644      4640      4638      4641      4642
      4640      4638      4641      4643      4640      4638      4641      4644
      4641      4644      4647      4648      4641      4644      4647      4649
      4641      4644      4647      4650      4642      4641      4644      4645
      4642      4641      4644      4646      4642      4641      4644      4647
      4643      4641      4644      4645      4643      4641      4644      4646
      4643      4641      4644      4647      4644      4647      4650      4651
      4644      4647      4650      4652      4644      4647      4650      4653
      4645      4644      4647      4648      4645      4644      4647      4649
      4645      4644      4647      4650      4646      4644      4647      4648
      4646      4644      4647      4649      4646      4644      4647      4650
      4647      4650      4653      4654      4647      4650      4653      4655
      4647      4650      4653      4656      4648      4647      4650      4651
      4648      4647      4650      4652      4648      4647      4650      4653
      4649      4647      4650      4651      4649      4647      4650      4652
      4649      4647      4650      4653      4650      4653      4656      4657
      4650      4653      4656      4658      4650      4653      4656      4659
      4651      4650      4653      4654      4651      4650      4653      4655
      4651      4650      4653      4656      4652      4650      4653      4654
      4652      4650      4653      4655      4652      4650      4653      4656
      4653      4656      4659      4660      4653      4656      4659      4661
      4653      4656      4659      4662      4654      4653      4656      4657
      4654      4653      4656      4658      4654      4653      4656      4659
      4655      4653      4656      4657      4655      4653      4656      4658
      4655      4653      4656      4659      4656      4659      4662      4663
      4656      4659      4662      4664      4656      4659      4662      4665
      4657      4656      4659      4660      4657      4656      4659      4661
      4657      4656      4659      4662      4658      4656      4659      4660
      4658      4656      4659      4661      4658      4656      4659      4662
      4659      4662      4665      4666      4659      4662      4665      4667
      4659      4662      4665      4668      4660      4659      4662      4663
      4660      4659      4662      4664      4660      4659      4662      4665
      4661      4659      4662      4663      4661      4659      4662      4664
      4661      4659      4662      4665      4662      4665      4668      4669
      4662      4665      4668      4670      4662      4665      4668      4671
      4663      4662      4665      4666      4663      4662      4665      4667
      4663      4662      4665      4668      4664      4662      4665      4666
      4664      4662      4665      4667      4664      4662      4665      4668
      4665      4668      4671      4672      4665      4668      4671      4673
      4665      4668      4671      4674      4666      4665      4668      4669
      4666      4665      4668      4670      4666      4665      4668      4671
      4667      4665      4668      4669      4667      4665      4668      4670
      4667      4665      4668      4671      4668      4671      4674      4675
      4668      4671      4674      4676      4668      4671      4674      4677
      4669      4668      4671      4672      4669      4668      4671      4673
      4669      4668      4671      4674      4670      4668      4671      4672
      4670      4668      4671      4673      4670      4668      4671      4674
      4671      4674      4677      4678      4671      4674      4677      4679
      4671      4674      4677      4680      4672      4671      4674      4675
      4672      4671      4674      4676      4672      4671      4674      4677
      4673      4671      4674      4675      4673      4671      4674      4676
      4673      4671      4674      4677      4674      4677      4680      4681
      4674      4677      4680      4682      4674      4677      4680      4683
      4675      4674      4677      4678      4675      4674      4677      4679
      4675      4674      4677      4680      4676      4674      4677      4678
      4676      4674      4677      4679      4676      4674      4677      4680
      4678      4677      4680      4681      4678      4677      4680      4682
      4678      4677      4680      4683      4679      4677      4680      4681
      4679      4677      4680      4682      4679      4677      4680      4683
      4684      4688      4691      4692      4684      4688      4691      4722
      4684      4730      4727      4722      4684      4730      4727      4728
      4684      4730      4727      4729      4685      4684      4686      4687
      4685      4684      4688      4689      4685      4684      4688      4690
      4685      4684      4688      4691      4685      4684      4730      4727
      4685      4684      4730      4731      4685      4684      4730      4732
      4686      4684      4688      4689      4686      4684      4688      4690
      4686      4684      4688      4691      4686      4684      4730      4727
      4686      4684      4730      4731      4686      4684      4730      4732
      4687      4686      4684      4688      4687      4686      4684      4730
      4688      4684      4730      4727      4688      4684      4730      4731
      4688      4684      4730      4732      4688      4691      4692      4693
      4688      4691      4692      4694      4688      4691      4722      4720
      4688      4691      4722      4723      4688      4691      4722      4727
      4689      4688      4684      4730      4689      4688      4691      4692
      4689      4688      4691      4722      4690      4688      4684      4730
      4690      4688      4691      4692      4690      4688      4691      4722
      4691      4688      4684      4730      4691      4692      4694      4695
      4691      4692      4694      4696      4691      4692      4694      4697
      4691      4722      4720      4697      4691      4722      4720      4717
      4691      4722      4720      4721      4691      4722      4723      4724
      4691      4722      4723      4725      4691      4722      4723      4726
      4691      4722      4727      4728      4691      4722      4727      4729
      4691      4722      4727      4730      4692      4691      4722      4720
      4692      4691      4722      4723      4692      4691      4722      4727
      4692      4694      4697      4698      4692      4694      4697      4699
      4692      4694      4697      4720      4693      4692      4691      4722
      4693      4692      4694      4695      4693      4692      4694      4696
      4693      4692      4694      4697      4694      4692      4691      4722
      4694      4697      4699      4700      4694      4697      4699      4701
      4694      4697      4699      4709      4694      4697      4720      4717
      4694      4697      4720      4721      4694      4697      4720      4722
      4695      4694      4697      4698      4695      4694      4697      4699
      4695      4694      4697      4720      4696      4694      4697      4698
      4696      4694      4697      4699      4696      4694      4697      4720
      4697      4699      4701      4702      4697      4699      4701      4703
      4697      4699      4701      4704      4697      4699      4709      4707
      4697      4699      4709      4710      4697      4699      4709      4714
      4697      4720      4717      4714      4697      4720      4717      4718
      4697      4720      4717      4719      4697      4720      4722      4723
      4697      4720      4722      4727      4698      4697      4699      4700
      4698      4697      4699      4701      4698      4697      4699      4709
      4698      4697      4720      4717      4698      4697      4720      4721
      4698      4697      4720      4722      4699      4697      4720      4717
      4699      4697      4720      4721      4699      4697      4720      4722
      4699      4701      4704      4705      4699      4701      4704      4706
      4699      4701      4704      4707      4699      4709      4707      4704
      4699      4709      4707      4708      4699      4709      4707      4733
      4699      4709      4710      4711      4699      4709      4710      4712
      4699      4709      4710      4713      4699      4709      4714      4715
      4699      4709      4714      4716      4699      4709      4714      4717
      4700      4699      4697      4720      4700      4699      4701      4702
      4700      4699      4701      4703      4700      4699      4701      4704
      4700      4699      4709      4707      4700      4699      4709      4710
      4700      4699      4709      4714      4701      4699      4697      4720
      4701      4699      4709      4707      4701      4699      4709      4710
      4701      4699      4709      4714      4701      4704      4707      4708
      4701      4704      4707      4709      4701      4704      4707      4733
      4702      4701      4699      4709      4702      4701      4704      4705
      4702      4701      4704      4706      4702      4701      4704      4707
      4703      4701      4699      4709      4703      4701      4704      4705
      4703      4701      4704      4706      4703      4701      4704      4707
      4704      4701      4699      4709      4704      4707      4709      4710
      4704      4707      4709      4714      4704      4707      4733      4734
      4704      4707      4733      4735      4704      4707      4733      4739
      4705      4704      4707      4708      4705      4704      4707      4709
      4705      4704      4707      4733      4706      4704      4707      4708
      4706      4704      4707      4709      4706      4704      4707      4733
      4707      4709      4710      4711      4707      4709      4710      4712
      4707      4709      4710      4713      4707      4709      4714      4715
      4707      4709      4714      4716      4707      4709      4714      4717
      4707      4733      4735      4736      4707      4733      4735      4737
      4707      4733      4735      4738      4707      4733      4739      4740
      4707      4733      4739      4741      4707      4733      4739      4742
      4708      4707      4709      4710      4708      4707      4709      4714
      4708      4707      4733      4734      4708      4707      4733      4735
      4708      4707      4733      4739      4709      4699      4697      4720
      4709      4707      4733      4734      4709      4707      4733      4735
      4709      4707      4733      4739      4709      4714      4717      4718
      4709      4714      4717      4719      4709      4714      4717      4720
      4710      4709      4707      4733      4710      4709      4714      4715
      4710      4709      4714      4716      4710      4709      4714      4717
      4711      4710      4709      4714      4712      4710      4709      4714
      4713      4710      4709      4714      4714      4709      4707      4733
      4714      4717      4720      4721      4714      4717      4720      4722
      4715      4714      4717      4718      4715      4714      4717      4719
      4715      4714      4717      4720      4716      4714      4717      4718
      4716      4714      4717      4719      4716      4714      4717      4720
      4717      4720      4722      4723      4717      4720      4722      4727
      4718      4717      4720      4721      4718      4717      4720      4722
      4719      4717      4720      4721      4719      4717      4720      4722
      4720      4722      4723      4724      4720      4722      4723      4725
      4720      4722      4723      4726      4720      4722      4727      4728
      4720      4722      4727      4729      4720      4722      4727      4730
      4721      4720      4722      4723      4721      4720      4722      4727
      4722      4727      4730      4731      4722      4727      4730      4732
      4723      4722      4727      4728      4723      4722      4727      4729
      4723      4722      4727      4730      4724      4723      4722      4727
      4725      4723      4722      4727      4726      4723      4722      4727
      4728      4727      4730      4731      4728      4727      4730      4732
      4729      4727      4730      4731      4729      4727      4730      4732
      4733      4739      4742      4743      4733      4739      4742      4744
      4733      4739      4742      4745      4734      4733      4735      4736
      4734      4733      4735      4737      4734      4733      4735      4738
      4734      4733      4739      4740      4734      4733      4739      4741
      4734      4733      4739      4742      4735      4733      4739      4740
      4735      4733      4739      4741      4735      4733      4739      4742
      4736      4735      4733      4739      4737      4735      4733      4739
      4738      4735      4733      4739      4739      4742      4745      4746
      4739      4742      4745      4747      4739      4742      4745      4748
      4740      4739      4742      4743      4740      4739      4742      4744
      4740      4739      4742      4745      4741      4739      4742      4743
      4741      4739      4742      4744      4741      4739      4742      4745
      4742      4745      4748      4749      4742      4745      4748      4750
      4742      4745      4748      4754      4743      4742      4745      4746
      4743      4742      4745      4747      4743      4742      4745      4748
      4744      4742      4745      4746      4744      4742      4745      4747
      4744      4742      4745      4748      4745      4748      4750      4751
      4745      4748      4750      4752      4745      4748      4750      4753
      4745      4748      4754      4755      4745      4748      4754      4756
      4745      4748      4754      4757      4746      4745      4748      4749
      4746      4745      4748      4750      4746      4745      4748      4754
      4747      4745      4748      4749      4747      4745      4748      4750
      4747      4745      4748      4754      4749      4748      4750      4751
      4749      4748      4750      4752      4749      4748      4750      4753
      4749      4748      4754      4755      4749      4748      4754      4756
      4749      4748      4754      4757      4750      4748      4754      4755
      4750      4748      4754      4756      4750      4748      4754      4757
      4751      4750      4748      4754      4752      4750      4748      4754
      4753      4750      4748      4754      4758      4762      4765      4766
      4758      4762      4765      4796      4758      4804      4801      4796
      4758      4804      4801      4802      4758      4804      4801      4803
      4759      4758      4760      4761      4759      4758      4762      4763
      4759      4758      4762      4764      4759      4758      4762      4765
      4759      4758      4804      4801      4759      4758      4804      4805
      4759      4758      4804      4806      4760      4758      4762      4763
      4760      4758      4762      4764      4760      4758      4762      4765
      4760      4758      4804      4801      4760      4758      4804      4805
      4760      4758      4804      4806      4761      4760      4758      4762
      4761      4760      4758      4804      4762      4758      4804      4801
      4762      4758      4804      4805      4762      4758      4804      4806
      4762      4765      4766      4767      4762      4765      4766      4768
      4762      4765      4796      4794      4762      4765      4796      4797
      4762      4765      4796      4801      4763      4762      4758      4804
      4763      4762      4765      4766      4763      4762      4765      4796
      4764      4762      4758      4804      4764      4762      4765      4766
      4764      4762      4765      4796      4765      4762      4758      4804
      4765      4766      4768      4769      4765      4766      4768      4770
      4765      4766      4768      4771      4765      4796      4794      4771
      4765      4796      4794      4791      4765      4796      4794      4795
      4765      4796      4797      4798      4765      4796      4797      4799
      4765      4796      4797      4800      4765      4796      4801      4802
      4765      4796      4801      4803      4765      4796      4801      4804
      4766      4765      4796      4794      4766      4765      4796      4797
      4766      4765      4796      4801      4766      4768      4771      4772
      4766      4768      4771      4773      4766      4768      4771      4794
      4767      4766      4765      4796      4767      4766      4768      4769
      4767      4766      4768      4770      4767      4766      4768      4771
      4768      4766      4765      4796      4768      4771      4773      4774
      4768      4771      4773      4775      4768      4771      4773      4783
      4768      4771      4794      4791      4768      4771      4794      4795
      4768      4771      4794      4796      4769      4768      4771      4772
      4769      4768      4771      4773      4769      4768      4771      4794
      4770      4768      4771      4772      4770      4768      4771      4773
      4770      4768      4771      4794      4771      4773      4775      4776
      4771      4773      4775      4777      4771      4773      4775      4778
      4771      4773      4783      4781      4771      4773      4783      4784
      4771      4773      4783      4788      4771      4794      4791      4788
      4771      4794      4791      4792      4771      4794      4791      4793
      4771      4794      4796      4797      4771      4794      4796      4801
      4772      4771      4773      4774      4772      4771      4773      4775
      4772      4771      4773      4783      4772      4771      4794      4791
      4772      4771      4794      4795      4772      4771      4794      4796
      4773      4771      4794      4791      4773      4771      4794      4795
      4773      4771      4794      4796      4773      4775      4778      4779
      4773      4775      4778      4780      4773      4775      4778      4781
      4773      4783      4781      4778      4773      4783      4781      4782
      4773      4783      4781      4807      4773      4783      4784      4785
      4773      4783      4784      4786      4773      4783      4784      4787
      4773      4783      4788      4789      4773      4783      4788      4790
      4773      4783      4788      4791      4774      4773      4771      4794
      4774      4773      4775      4776      4774      4773      4775      4777
      4774      4773      4775      4778      4774      4773      4783      4781
      4774      4773      4783      4784      4774      4773      4783      4788
      4775      4773      4771      4794      4775      4773      4783      4781
      4775      4773      4783      4784      4775      4773      4783      4788
      4775      4778      4781      4782      4775      4778      4781      4783
      4775      4778      4781      4807      4776      4775      4773      4783
      4776      4775      4778      4779      4776      4775      4778      4780
      4776      4775      4778      4781      4777      4775      4773      4783
      4777      4775      4778      4779      4777      4775      4778      4780
      4777      4775      4778      4781      4778      4775      4773      4783
      4778      4781      4783      4784      4778      4781      4783      4788
      4778      4781      4807      4808      4778      4781      4807      4809
      4778      4781      4807      4813      4779      4778      4781      4782
      4779      4778      4781      4783      4779      4778      4781      4807
      4780      4778      4781      4782      4780      4778      4781      4783
      4780      4778      4781      4807      4781      4783      4784      4785
      4781      4783      4784      4786      4781      4783      4784      4787
      4781      4783      4788      4789      4781      4783      4788      4790
      4781      4783      4788      4791      4781      4807      4809      4810
      4781      4807      4809      4811      4781      4807      4809      4812
      4781      4807      4813      4814      4781      4807      4813      4815
      4781      4807      4813      4816      4782      4781      4783      4784
      4782      4781      4783      4788      4782      4781      4807      4808
      4782      4781      4807      4809      4782      4781      4807      4813
      4783      4773      4771      4794      4783      4781      4807      4808
      4783      4781      4807      4809      4783      4781      4807      4813
      4783      4788      4791      4792      4783      4788      4791      4793
      4783      4788      4791      4794      4784      4783      4781      4807
      4784      4783      4788      4789      4784      4783      4788      4790
      4784      4783      4788      4791      4785      4784      4783      4788
      4786      4784      4783      4788      4787      4784      4783      4788
      4788      4783      4781      4807      4788      4791      4794      4795
      4788      4791      4794      4796      4789      4788      4791      4792
      4789      4788      4791      4793      4789      4788      4791      4794
      4790      4788      4791      4792      4790      4788      4791      4793
      4790      4788      4791      4794      4791      4794      4796      4797
      4791      4794      4796      4801      4792      4791      4794      4795
      4792      4791      4794      4796      4793      4791      4794      4795
      4793      4791      4794      4796      4794      4796      4797      4798
      4794      4796      4797      4799      4794      4796      4797      4800
      4794      4796      4801      4802      4794      4796      4801      4803
      4794      4796      4801      4804      4795      4794      4796      4797
      4795      4794      4796      4801      4796      4801      4804      4805
      4796      4801      4804      4806      4797      4796      4801      4802
      4797      4796      4801      4803      4797      4796      4801      4804
      4798      4797      4796      4801      4799      4797      4796      4801
      4800      4797      4796      4801      4802      4801      4804      4805
      4802      4801      4804      4806      4803      4801      4804      4805
      4803      4801      4804      4806      4807      4813      4816      4817
      4807      4813      4816      4818      4807      4813      4816      4819
      4808      4807      4809      4810      4808      4807      4809      4811
      4808      4807      4809      4812      4808      4807      4813      4814
      4808      4807      4813      4815      4808      4807      4813      4816
      4809      4807      4813      4814      4809      4807      4813      4815
      4809      4807      4813      4816      4810      4809      4807      4813
      4811      4809      4807      4813      4812      4809      4807      4813
      4813      4816      4819      4820      4813      4816      4819      4821
      4813      4816      4819      4822      4814      4813      4816      4817
      4814      4813      4816      4818      4814      4813      4816      4819
      4815      4813      4816      4817      4815      4813      4816      4818
      4815      4813      4816      4819      4816      4819      4822      4823
      4816      4819      4822      4824      4816      4819      4822      4828
      4817      4816      4819      4820      4817      4816      4819      4821
      4817      4816      4819      4822      4818      4816      4819      4820
      4818      4816      4819      4821      4818      4816      4819      4822
      4819      4822      4824      4825      4819      4822      4824      4826
      4819      4822      4824      4827      4819      4822      4828      4829
      4819      4822      4828      4830      4819      4822      4828      4831
      4820      4819      4822      4823      4820      4819      4822      4824
      4820      4819      4822      4828      4821      4819      4822      4823
      4821      4819      4822      4824      4821      4819      4822      4828
      4823      4822      4824      4825      4823      4822      4824      4826
      4823      4822      4824      4827      4823      4822      4828      4829
      4823      4822      4828      4830      4823      4822      4828      4831
      4824      4822      4828      4829      4824      4822      4828      4830
      4824      4822      4828      4831      4825      4824      4822      4828
      4826      4824      4822      4828      4827      4824      4822      4828
      4832      4836      4839      4840      4832      4836      4839      4870
      4832      4878      4875      4870      4832      4878      4875      4876
      4832      4878      4875      4877      4833      4832      4834      4835
      4833      4832      4836      4837      4833      4832      4836      4838
      4833      4832      4836      4839      4833      4832      4878      4875
      4833      4832      4878      4879      4833      4832      4878      4880
      4834      4832      4836      4837      4834      4832      4836      4838
      4834      4832      4836      4839      4834      4832      4878      4875
      4834      4832      4878      4879      4834      4832      4878      4880
      4835      4834      4832      4836      4835      4834      4832      4878
      4836      4832      4878      4875      4836      4832      4878      4879
      4836      4832      4878      4880      4836      4839      4840      4841
      4836      4839      4840      4842      4836      4839      4870      4868
      4836      4839      4870      4871      4836      4839      4870      4875
      4837      4836      4832      4878      4837      4836      4839      4840
      4837      4836      4839      4870      4838      4836      4832      4878
      4838      4836      4839      4840      4838      4836      4839      4870
      4839      4836      4832      4878      4839      4840      4842      4843
      4839      4840      4842      4844      4839      4840      4842      4845
      4839      4870      4868      4845      4839      4870      4868      4865
      4839      4870      4868      4869      4839      4870      4871      4872
      4839      4870      4871      4873      4839      4870      4871      4874
      4839      4870      4875      4876      4839      4870      4875      4877
      4839      4870      4875      4878      4840      4839      4870      4868
      4840      4839      4870      4871      4840      4839      4870      4875
      4840      4842      4845      4846      4840      4842      4845      4847
      4840      4842      4845      4868      4841      4840      4839      4870
      4841      4840      4842      4843      4841      4840      4842      4844
      4841      4840      4842      4845      4842      4840      4839      4870
      4842      4845      4847      4848      4842      4845      4847      4849
      4842      4845      4847      4857      4842      4845      4868      4865
      4842      4845      4868      4869      4842      4845      4868      4870
      4843      4842      4845      4846      4843      4842      4845      4847
      4843      4842      4845      4868      4844      4842      4845      4846
      4844      4842      4845      4847      4844      4842      4845      4868
      4845      4847      4849      4850      4845      4847      4849      4851
      4845      4847      4849      4852      4845      4847      4857      4855
      4845      4847      4857      4858      4845      4847      4857      4862
      4845      4868      4865      4862      4845      4868      4865      4866
      4845      4868      4865      4867      4845      4868      4870      4871
      4845      4868      4870      4875      4846      4845      4847      4848
      4846      4845      4847      4849      4846      4845      4847      4857
      4846      4845      4868      4865      4846      4845      4868      4869
      4846      4845      4868      4870      4847      4845      4868      4865
      4847      4845      4868      4869      4847      4845      4868      4870
      4847      4849      4852      4853      4847      4849      4852      4854
      4847      4849      4852      4855      4847      4857      4855      4852
      4847      4857      4855      4856      4847      4857      4855      4881
      4847      4857      4858      4859      4847      4857      4858      4860
      4847      4857      4858      4861      4847      4857      4862      4863
      4847      4857      4862      4864      4847      4857      4862      4865
      4848      4847      4845      4868      4848      4847      4849      4850
      4848      4847      4849      4851      4848      4847      4849      4852
      4848      4847      4857      4855      4848      4847      4857      4858
      4848      4847      4857      4862      4849      4847      4845      4868
      4849      4847      4857      4855      4849      4847      4857      4858
      4849      4847      4857      4862      4849      4852      4855      4856
      4849      4852      4855      4857      4849      4852      4855      4881
      4850      4849      4847      4857      4850      4849      4852      4853
      4850      4849      4852      4854      4850      4849      4852      4855
      4851      4849      4847      4857      4851      4849      4852      4853
      4851      4849      4852      4854      4851      4849      4852      4855
      4852      4849      4847      4857      4852      4855      4857      4858
      4852      4855      4857      4862      4852      4855      4881      4882
      4852      4855      4881      4883      4852      4855      4881      4887
      4853      4852      4855      4856      4853      4852      4855      4857
      4853      4852      4855      4881      4854      4852      4855      4856
      4854      4852      4855      4857      4854      4852      4855      4881
      4855      4857      4858      4859      4855      4857      4858      4860
      4855      4857      4858      4861      4855      4857      4862      4863
      4855      4857      4862      4864      4855      4857      4862      4865
      4855      4881      4883      4884      4855      4881      4883      4885
      4855      4881      4883      4886      4855      4881      4887      4888
      4855      4881      4887      4889      4855      4881      4887      4890
      4856      4855      4857      4858      4856      4855      4857      4862
      4856      4855      4881      4882      4856      4855      4881      4883
      4856      4855      4881      4887      4857      4847      4845      4868
      4857      4855      4881      4882      4857      4855      4881      4883
      4857      4855      4881      4887      4857      4862      4865      4866
      4857      4862      4865      4867      4857      4862      4865      4868
      4858      4857      4855      4881      4858      4857      4862      4863
      4858      4857      4862      4864      4858      4857      4862      4865
      4859      4858      4857      4862      4860      4858      4857      4862
      4861      4858      4857      4862      4862      4857      4855      4881
      4862      4865      4868      4869      4862      4865      4868      4870
      4863      4862      4865      4866      4863      4862      4865      4867
      4863      4862      4865      4868      4864      4862      4865      4866
      4864      4862      4865      4867      4864      4862      4865      4868
      4865      4868      4870      4871      4865      4868      4870      4875
      4866      4865      4868      4869      4866      4865      4868      4870
      4867      4865      4868      4869      4867      4865      4868      4870
      4868      4870      4871      4872      4868      4870      4871      4873
      4868      4870      4871      4874      4868      4870      4875      4876
      4868      4870      4875      4877      4868      4870      4875      4878
      4869      4868      4870      4871      4869      4868      4870      4875
      4870      4875      4878      4879      4870      4875      4878      4880
      4871      4870      4875      4876      4871      4870      4875      4877
      4871      4870      4875      4878      4872      4871      4870      4875
      4873      4871      4870      4875      4874      4871      4870      4875
      4876      4875      4878      4879      4876      4875      4878      4880
      4877      4875      4878      4879      4877      4875      4878      4880
      4881      4887      4890      4891      4881      4887      4890      4892
      4881      4887      4890      4893      4882      4881      4883      4884
      4882      4881      4883      4885      4882      4881      4883      4886
      4882      4881      4887      4888      4882      4881      4887      4889
      4882      4881      4887      4890      4883      4881      4887      4888
      4883      4881      4887      4889      4883      4881      4887      4890
      4884      4883      4881      4887      4885      4883      4881      4887
      4886      4883      4881      4887      4887      4890      4893      4894
      4887      4890      4893      4895      4887      4890      4893      4896
      4888      4887      4890      4891      4888      4887      4890      4892
      4888      4887      4890      4893      4889      4887      4890      4891
      4889      4887      4890      4892      4889      4887      4890      4893
      4890      4893      4896      4897      4890      4893      4896      4898
      4890      4893      4896      4902      4891      4890      4893      4894
      4891      4890      4893      4895      4891      4890      4893      4896
      4892      4890      4893      4894      4892      4890      4893      4895
      4892      4890      4893      4896      4893      4896      4898      4899
      4893      4896      4898      4900      4893      4896      4898      4901
      4893      4896      4902      4903      4893      4896      4902      4904
      4893      4896      4902      4905      4894      4893      4896      4897
      4894      4893      4896      4898      4894      4893      4896      4902
      4895      4893      4896      4897      4895      4893      4896      4898
      4895      4893      4896      4902      4897      4896      4898      4899
      4897      4896      4898      4900      4897      4896      4898      4901
      4897      4896      4902      4903      4897      4896      4902      4904
      4897      4896      4902      4905      4898      4896      4902      4903
      4898      4896      4902      4904      4898      4896      4902      4905
      4899      4898      4896      4902      4900      4898      4896      4902
      4901      4898      4896      4902      4906      4910      4913      4914
      4906      4910      4913      4944      4906      4952      4949      4944
      4906      4952      4949      4950      4906      4952      4949      4951
      4907      4906      4908      4909      4907      4906      4910      4911
      4907      4906      4910      4912      4907      4906      4910      4913
      4907      4906      4952      4949      4907      4906      4952      4953
      4907      4906      4952      4954      4908      4906      4910      4911
      4908      4906      4910      4912      4908      4906      4910      4913
      4908      4906      4952      4949      4908      4906      4952      4953
      4908      4906      4952      4954      4909      4908      4906      4910
      4909      4908      4906      4952      4910      4906      4952      4949
      4910      4906      4952      4953      4910      4906      4952      4954
      4910      4913      4914      4915      4910      4913      4914      4916
      4910      4913      4944      4942      4910      4913      4944      4945
      4910      4913      4944      4949      4911      4910      4906      4952
      4911      4910      4913      4914      4911      4910      4913      4944
      4912      4910      4906      4952      4912      4910      4913      4914
      4912      4910      4913      4944      4913      4910      4906      4952
      4913      4914      4916      4917      4913      4914      4916      4918
      4913      4914      4916      4919      4913      4944      4942      4919
      4913      4944      4942      4939      4913      4944      4942      4943
      4913      4944      4945      4946      4913      4944      4945      4947
      4913      4944      4945      4948      4913      4944      4949      4950
      4913      4944      4949      4951      4913      4944      4949      4952
      4914      4913      4944      4942      4914      4913      4944      4945
      4914      4913      4944      4949      4914      4916      4919      4920
      4914      4916      4919      4921      4914      4916      4919      4942
      4915      4914      4913      4944      4915      4914      4916      4917
      4915      4914      4916      4918      4915      4914      4916      4919
      4916      4914      4913      4944      4916      4919      4921      4922
      4916      4919      4921      4923      4916      4919      4921      4931
      4916      4919      4942      4939      4916      4919      4942      4943
      4916      4919      4942      4944      4917      4916      4919      4920
      4917      4916      4919      4921      4917      4916      4919      4942
      4918      4916      4919      4920      4918      4916      4919      4921
      4918      4916      4919      4942      4919      4921      4923      4924
      4919      4921      4923      4925      4919      4921      4923      4926
      4919      4921      4931      4929      4919      4921      4931      4932
      4919      4921      4931      4936      4919      4942      4939      4936
      4919      4942      4939      4940      4919      4942      4939      4941
      4919      4942      4944      4945      4919      4942      4944      4949
      4920      4919      4921      4922      4920      4919      4921      4923
      4920      4919      4921      4931      4920      4919      4942      4939
      4920      4919      4942      4943      4920      4919      4942      4944
      4921      4919      4942      4939      4921      4919      4942      4943
      4921      4919      4942      4944      4921      4923      4926      4927
      4921      4923      4926      4928      4921      4923      4926      4929
      4921      4931      4929      4926      4921      4931      4929      4930
      4921      4931      4929      4955      4921      4931      4932      4933
      4921      4931      4932      4934      4921      4931      4932      4935
      4921      4931      4936      4937      4921      4931      4936      4938
      4921      4931      4936      4939      4922      4921      4919      4942
      4922      4921      4923      4924      4922      4921      4923      4925
      4922      4921      4923      4926      4922      4921      4931      4929
      4922      4921      4931      4932      4922      4921      4931      4936
      4923      4921      4919      4942      4923      4921      4931      4929
      4923      4921      4931      4932      4923      4921      4931      4936
      4923      4926      4929      4930      4923      4926      4929      4931
      4923      4926      4929      4955      4924      4923      4921      4931
      4924      4923      4926      4927      4924      4923      4926      4928
      4924      4923      4926      4929      4925      4923      4921      4931
      4925      4923      4926      4927      4925      4923      4926      4928
      4925      4923      4926      4929      4926      4923      4921      4931
      4926      4929      4931      4932      4926      4929      4931      4936
      4926      4929      4955      4956      4926      4929      4955      4957
      4926      4929      4955      4961      4927      4926      4929      4930
      4927      4926      4929      4931      4927      4926      4929      4955
      4928      4926      4929      4930      4928      4926      4929      4931
      4928      4926      4929      4955      4929      4931      4932      4933
      4929      4931      4932      4934      4929      4931      4932      4935
      4929      4931      4936      4937      4929      4931      4936      4938
      4929      4931      4936      4939      4929      4955      4957      4958
      4929      4955      4957      4959      4929      4955      4957      4960
      4929      4955      4961      4962      4929      4955      4961      4963
      4929      4955      4961      4964      4930      4929      4931      4932
      4930      4929      4931      4936      4930      4929      4955      4956
      4930      4929      4955      4957      4930      4929      4955      4961
      4931      4921      4919      4942      4931      4929      4955      4956
      4931      4929      4955      4957      4931      4929      4955      4961
      4931      4936      4939      4940      4931      4936      4939      4941
      4931      4936      4939      4942      4932      4931      4929      4955
      4932      4931      4936      4937      4932      4931      4936      4938
      4932      4931      4936      4939      4933      4932      4931      4936
      4934      4932      4931      4936      4935      4932      4931      4936
      4936      4931      4929      4955      4936      4939      4942      4943
      4936      4939      4942      4944      4937      4936      4939      4940
      4937      4936      4939      4941      4937      4936      4939      4942
      4938      4936      4939      4940      4938      4936      4939      4941
      4938      4936      4939      4942      4939      4942      4944      4945
      4939      4942      4944      4949      4940      4939      4942      4943
      4940      4939      4942      4944      4941      4939      4942      4943
      4941      4939      4942      4944      4942      4944      4945      4946
      4942      4944      4945      4947      4942      4944      4945      4948
      4942      4944      4949      4950      4942      4944      4949      4951
      4942      4944      4949      4952      4943      4942      4944      4945
      4943      4942      4944      4949      4944      4949      4952      4953
      4944      4949      4952      4954      4945      4944      4949      4950
      4945      4944      4949      4951      4945      4944      4949      4952
      4946      4945      4944      4949      4947      4945      4944      4949
      4948      4945      4944      4949      4950      4949      4952      4953
      4950      4949      4952      4954      4951      4949      4952      4953
      4951      4949      4952      4954      4955      4961      4964      4965
      4955      4961      4964      4966      4955      4961      4964      4967
      4956      4955      4957      4958      4956      4955      4957      4959
      4956      4955      4957      4960      4956      4955      4961      4962
      4956      4955      4961      4963      4956      4955      4961      4964
      4957      4955      4961      4962      4957      4955      4961      4963
      4957      4955      4961      4964      4958      4957      4955      4961
      4959      4957      4955      4961      4960      4957      4955      4961
      4961      4964      4967      4968      4961      4964      4967      4969
      4961      4964      4967      4970      4962      4961      4964      4965
      4962      4961      4964      4966      4962      4961      4964      4967
      4963      4961      4964      4965      4963      4961      4964      4966
      4963      4961      4964      4967      4964      4967      4970      4971
      4964      4967      4970      4972      4964      4967      4970      4976
      4965      4964      4967      4968      4965      4964      4967      4969
      4965      4964      4967      4970      4966      4964      4967      4968
      4966      4964      4967      4969      4966      4964      4967      4970
      4967      4970      4972      4973      4967      4970      4972      4974
      4967      4970      4972      4975      4967      4970      4976      4977
      4967      4970      4976      4978      4967      4970      4976      4979
      4968      4967      4970      4971      4968      4967      4970      4972
      4968      4967      4970      4976      4969      4967      4970      4971
      4969      4967      4970      4972      4969      4967      4970      4976
      4971      4970      4972      4973      4971      4970      4972      4974
      4971      4970      4972      4975      4971      4970      4976      4977
      4971      4970      4976      4978      4971      4970      4976      4979
      4972      4970      4976      4977      4972      4970      4976      4978
      4972      4970      4976      4979      4973      4972      4970      4976
      4974      4972      4970      4976      4975      4972      4970      4976
      4980      4984      4986      4987      4980      4984      4986      4988
      4980      4984      4989      4990      4980      4984      4989      4991
      4980      4984      4989      4995      4981      4980      4984      4985
      4981      4980      4984      4986      4981      4980      4984      4989
      4982      4980      4984      4985      4982      4980      4984      4986
      4982      4980      4984      4989      4983      4980      4984      4985
      4983      4980      4984      4986      4983      4980      4984      4989
      4984      4989      4995      4992      4985      4984      4986      4987
      4985      4984      4986      4988      4985      4984      4989      4990
      4985      4984      4989      4991      4985      4984      4989      4995
      4986      4984      4989      4990      4986      4984      4989      4991
      4986      4984      4989      4995      4987      4986      4984      4989
      4988      4986      4984      4989      4989      4995      4992      4993
      4989      4995      4992      4994      4989      4995      4992      4996
      4990      4989      4995      4992      4991      4989      4995      4992
      4992      4996      4997      4998      4992      4996      4997      4999
      4992      4996      4997      5000      4993      4992      4996      4997
      4994      4992      4996      4997      4995      4992      4996      4997
      4996      4997      5000      5001      4996      4997      5000      5002
      4996      4997      5000      5008      4997      5000      5002      5003
      4997      5000      5008      5009      4997      5000      5008      5010
      4997      5000      5008      5011      4998      4997      5000      5001
      4998      4997      5000      5002      4998      4997      5000      5008
      4999      4997      5000      5001      4999      4997      5000      5002
      4999      4997      5000      5008      5000      5002      5003      5004
      5000      5002      5003      5005      5000      5008      5011      5012
      5001      5000      5002      5003      5001      5000      5008      5009
      5001      5000      5008      5010      5001      5000      5008      5011
      5002      5000      5008      5009      5002      5000      5008      5010
      5002      5000      5008      5011      5002      5003      5005      5006
      5002      5003      5005      5007      5002      5003      5005      5017
      5003      5002      5000      5008      5003      5005      5017      5018
      5003      5005      5017      5019      5003      5005      5017      5020
      5004      5003      5005      5006      5004      5003      5005      5007
      5004      5003      5005      5017      5005      5017      5020      5021
      5005      5017      5020      5022      5005      5017      5020      5023
      5006      5005      5017      5018      5006      5005      5017      5019
      5006      5005      5017      5020      5007      5005      5017      5018
      5007      5005      5017      5019      5007      5005      5017      5020
      5008      5011      5012      5013      5008      5011      5012      5014
      5009      5008      5011      5012      5010      5008      5011      5012
      5011      5012      5014      5015      5011      5012      5014      5016
      5011      5012      5014      5064      5012      5014      5064      5065
      5012      5014      5064      5066      5012      5014      5064      5067
      5013      5012      5014      5015      5013      5012      5014      5016
      5013      5012      5014      5064      5014      5064      5067      5068
      5014      5064      5067      5069      5014      5064      5067      5070
      5015      5014      5064      5065      5015      5014      5064      5066
      5015      5014      5064      5067      5016      5014      5064      5065
      5016      5014      5064      5066      5016      5014      5064      5067
      5017      5020      5023      5024      5017      5020      5023      5025
      5018      5017      5020      5021      5018      5017      5020      5022
      5018      5017      5020      5023      5019      5017      5020      5021
      5019      5017      5020      5022      5019      5017      5020      5023
      5020      5023      5025      5026      5020      5023      5025      5027
      5021      5020      5023      5024      5021      5020      5023      5025
      5022      5020      5023      5024      5022      5020      5023      5025
      5023      5025      5027      5028      5023      5025      5027      5029
      5023      5025      5027      5030      5024      5023      5025      5026
      5024      5023      5025      5027      5025      5027      5030      5031
      5025      5027      5030      5032      5026      5025      5027      5028
      5026      5025      5027      5029      5026      5025      5027      5030
      5027      5030      5032      5033      5027      5030      5032      5034
      5028      5027      5030      5031      5028      5027      5030      5032
      5029      5027      5030      5031      5029      5027      5030      5032
      5030      5032      5034      5035      5030      5032      5034      5036
      5030      5032      5034      5037      5031      5030      5032      5033
      5031      5030      5032      5034      5032      5034      5037      5038
      5032      5034      5037      5039      5033      5032      5034      5035
      5033      5032      5034      5036      5033      5032      5034      5037
      5034      5037      5039      5040      5034      5037      5039      5041
      5035      5034      5037      5038      5035      5034      5037      5039
      5036      5034      5037      5038      5036      5034      5037      5039
      5037      5039      5041      5042      5037      5039      5041      5043
      5037      5039      5041      5044      5038      5037      5039      5040
      5038      5037      5039      5041      5039      5041      5044      5045
      5039      5041      5044      5046      5040      5039      5041      5042
      5040      5039      5041      5043      5040      5039      5041      5044
      5041      5044      5046      5047      5041      5044      5046      5048
      5042      5041      5044      5045      5042      5041      5044      5046
      5043      5041      5044      5045      5043      5041      5044      5046
      5044      5046      5048      5049      5044      5046      5048      5050
      5044      5046      5048      5051      5045      5044      5046      5047
      5045      5044      5046      5048      5046      5048      5051      5052
      5046      5048      5051      5053      5046      5048      5051      5054
      5047      5046      5048      5049      5047      5046      5048      5050
      5047      5046      5048      5051      5048      5051      5054      5055
      5048      5051      5054      5056      5048      5051      5054      5057
      5049      5048      5051      5052      5049      5048      5051      5053
      5049      5048      5051      5054      5050      5048      5051      5052
      5050      5048      5051      5053      5050      5048      5051      5054
      5051      5054      5057      5058      5051      5054      5057      5059
      5051      5054      5057      5060      5052      5051      5054      5055
      5052      5051      5054      5056      5052      5051      5054      5057
      5053      5051      5054      5055      5053      5051      5054      5056
      5053      5051      5054      5057      5054      5057      5060      5061
      5054      5057      5060      5062      5054      5057      5060      5063
      5055      5054      5057      5058      5055      5054      5057      5059
      5055      5054      5057      5060      5056      5054      5057      5058
      5056      5054      5057      5059      5056      5054      5057      5060
      5058      5057      5060      5061      5058      5057      5060      5062
      5058      5057      5060      5063      5059      5057      5060      5061
      5059      5057      5060      5062      5059      5057      5060      5063
      5064      5067      5070      5071      5064      5067      5070      5072
      5064      5067      5070      5073      5065      5064      5067      5068
      5065      5064      5067      5069      5065      5064      5067      5070
      5066      5064      5067      5068      5066      5064      5067      5069
      5066      5064      5067      5070      5067      5070      5073      5074
      5067      5070      5073      5075      5067      5070      5073      5076
      5068      5067      5070      5071      5068      5067      5070      5072
      5068      5067      5070      5073      5069      5067      5070      5071
      5069      5067      5070      5072      5069      5067      5070      5073
      5070      5073      5076      5077      5070      5073      5076      5078
      5070      5073      5076      5079      5071      5070      5073      5074
      5071      5070      5073      5075      5071      5070      5073      5076
      5072      5070      5073      5074      5072      5070      5073      5075
      5072      5070      5073      5076      5073      5076      5079      5080
      5073      5076      5079      5081      5073      5076      5079      5082
      5074      5073      5076      5077      5074      5073      5076      5078
      5074      5073      5076      5079      5075      5073      5076      5077
      5075      5073      5076      5078      5075      5073      5076      5079
      5076      5079      5082      5083      5076      5079      5082      5084
      5076      5079      5082      5085      5077      5076      5079      5080
      5077      5076      5079      5081      5077      5076      5079      5082
      5078      5076      5079      5080      5078      5076      5079      5081
      5078      5076      5079      5082      5079      5082      5085      5086
      5079      5082      5085      5087      5079      5082      5085      5088
      5080      5079      5082      5083      5080      5079      5082      5084
      5080      5079      5082      5085      5081      5079      5082      5083
      5081      5079      5082      5084      5081      5079      5082      5085
      5082      5085      5088      5089      5082      5085      5088      5090
      5082      5085      5088      5091      5083      5082      5085      5086
      5083      5082      5085      5087      5083      5082      5085      5088
      5084      5082      5085      5086      5084      5082      5085      5087
      5084      5082      5085      5088      5085      5088      5091      5092
      5085      5088      5091      5093      5085      5088      5091      5094
      5086      5085      5088      5089      5086      5085      5088      5090
      5086      5085      5088      5091      5087      5085      5088      5089
      5087      5085      5088      5090      5087      5085      5088      5091
      5088      5091      5094      5095      5088      5091      5094      5096
      5088      5091      5094      5097      5089      5088      5091      5092
      5089      5088      5091      5093      5089      5088      5091      5094
      5090      5088      5091      5092      5090      5088      5091      5093
      5090      5088      5091      5094      5091      5094      5097      5098
      5091      5094      5097      5099      5091      5094      5097      5100
      5092      5091      5094      5095      5092      5091      5094      5096
      5092      5091      5094      5097      5093      5091      5094      5095
      5093      5091      5094      5096      5093      5091      5094      5097
      5094      5097      5100      5101      5094      5097      5100      5102
      5094      5097      5100      5103      5095      5094      5097      5098
      5095      5094      5097      5099      5095      5094      5097      5100
      5096      5094      5097      5098      5096      5094      5097      5099
      5096      5094      5097      5100      5097      5100      5103      5104
      5097      5100      5103      5105      5097      5100      5103      5106
      5098      5097      5100      5101      5098      5097      5100      5102
      5098      5097      5100      5103      5099      5097      5100      5101
      5099      5097      5100      5102      5099      5097      5100      5103
      5100      5103      5106      5107      5100      5103      5106      5108
      5100      5103      5106      5109      5101      5100      5103      5104
      5101      5100      5103      5105      5101      5100      5103      5106
      5102      5100      5103      5104      5102      5100      5103      5105
      5102      5100      5103      5106      5103      5106      5109      5110
      5103      5106      5109      5111      5103      5106      5109      5112
      5104      5103      5106      5107      5104      5103      5106      5108
      5104      5103      5106      5109      5105      5103      5106      5107
      5105      5103      5106      5108      5105      5103      5106      5109
      5107      5106      5109      5110      5107      5106      5109      5111
      5107      5106      5109      5112      5108      5106      5109      5110
      5108      5106      5109      5111      5108      5106      5109      5112
      5113      5117      5120      5121      5113      5117      5120      5122
      5113      5117      5120      5126      5114      5113      5117      5118
      5114      5113      5117      5119      5114      5113      5117      5120
      5115      5113      5117      5118      5115      5113      5117      5119
      5115      5113      5117      5120      5116      5113      5117      5118
      5116      5113      5117      5119      5116      5113      5117      5120
      5117      5120      5126      5123      5118      5117      5120      5121
      5118      5117      5120      5122      5118      5117      5120      5126
      5119      5117      5120      5121      5119      5117      5120      5122
      5119      5117      5120      5126      5120      5126      5123      5124
      5120      5126      5123      5125      5120      5126      5123      5127
      5121      5120      5126      5123      5122      5120      5126      5123
      5123      5127      5128      5129      5123      5127      5128      5130
      5123      5127      5128      5131      5124      5123      5127      5128
      5125      5123      5127      5128      5126      5123      5127      5128
      5127      5128      5131      5132      5127      5128      5131      5133
      5127      5128      5131      5139      5128      5131      5133      5134
      5128      5131      5139      5140      5128      5131      5139      5141
      5128      5131      5139      5142      5129      5128      5131      5132
      5129      5128      5131      5133      5129      5128      5131      5139
      5130      5128      5131      5132      5130      5128      5131      5133
      5130      5128      5131      5139      5131      5133      5134      5135
      5131      5133      5134      5136      5131      5139      5142      5143
      5132      5131      5133      5134      5132      5131      5139      5140
      5132      5131      5139      5141      5132      5131      5139      5142
      5133      5131      5139      5140      5133      5131      5139      5141
      5133      5131      5139      5142      5133      5134      5136      5137
      5133      5134      5136      5138      5133      5134      5136      5148
      5134      5133      5131      5139      5134      5136      5148      5149
      5134      5136      5148      5150      5134      5136      5148      5151
      5135      5134      5136      5137      5135      5134      5136      5138
      5135      5134      5136      5148      5136      5148      5151      5152
      5136      5148      5151      5153      5136      5148      5151      5154
      5137      5136      5148      5149      5137      5136      5148      5150
      5137      5136      5148      5151      5138      5136      5148      5149
      5138      5136      5148      5150      5138      5136      5148      5151
      5139      5142      5143      5144      5139      5142      5143      5145
      5140      5139      5142      5143      5141      5139      5142      5143
      5142      5143      5145      5146      5142      5143      5145      5147
      5142      5143      5145      5195      5143      5145      5195      5196
      5143      5145      5195      5197      5143      5145      5195      5198
      5144      5143      5145      5146      5144      5143      5145      5147
      5144      5143      5145      5195      5145      5195      5198      5199
      5145      5195      5198      5200      5145      5195      5198      5201
      5146      5145      5195      5196      5146      5145      5195      5197
      5146      5145      5195      5198      5147      5145      5195      5196
      5147      5145      5195      5197      5147      5145      5195      5198
      5148      5151      5154      5155      5148      5151      5154      5156
      5149      5148      5151      5152      5149      5148      5151      5153
      5149      5148      5151      5154      5150      5148      5151      5152
      5150      5148      5151      5153      5150      5148      5151      5154
      5151      5154      5156      5157      5151      5154      5156      5158
      5152      5151      5154      5155      5152      5151      5154      5156
      5153      5151      5154      5155      5153      5151      5154      5156
      5154      5156      5158      5159      5154      5156      5158      5160
      5154      5156      5158      5161      5155      5154      5156      5157
      5155      5154      5156      5158      5156      5158      5161      5162
      5156      5158      5161      5163      5157      5156      5158      5159
      5157      5156      5158      5160      5157      5156      5158      5161
      5158      5161      5163      5164      5158      5161      5163      5165
      5159      5158      5161      5162      5159      5158      5161      5163
      5160      5158      5161      5162      5160      5158      5161      5163
      5161      5163      5165      5166      5161      5163      5165      5167
      5161      5163      5165      5168      5162      5161      5163      5164
      5162      5161      5163      5165      5163      5165      5168      5169
      5163      5165      5168      5170      5164      5163      5165      5166
      5164      5163      5165      5167      5164      5163      5165      5168
      5165      5168      5170      5171      5165      5168      5170      5172
      5166      5165      5168      5169      5166      5165      5168      5170
      5167      5165      5168      5169      5167      5165      5168      5170
      5168      5170      5172      5173      5168      5170      5172      5174
      5168      5170      5172      5175      5169      5168      5170      5171
      5169      5168      5170      5172      5170      5172      5175      5176
      5170      5172      5175      5177      5171      5170      5172      5173
      5171      5170      5172      5174      5171      5170      5172      5175
      5172      5175      5177      5178      5172      5175      5177      5179
      5173      5172      5175      5176      5173      5172      5175      5177
      5174      5172      5175      5176      5174      5172      5175      5177
      5175      5177      5179      5180      5175      5177      5179      5181
      5175      5177      5179      5182      5176      5175      5177      5178
      5176      5175      5177      5179      5177      5179      5182      5183
      5177      5179      5182      5184      5177      5179      5182      5185
      5178      5177      5179      5180      5178      5177      5179      5181
      5178      5177      5179      5182      5179      5182      5185      5186
      5179      5182      5185      5187      5179      5182      5185      5188
      5180      5179      5182      5183      5180      5179      5182      5184
      5180      5179      5182      5185      5181      5179      5182      5183
      5181      5179      5182      5184      5181      5179      5182      5185
      5182      5185      5188      5189      5182      5185      5188      5190
      5182      5185      5188      5191      5183      5182      5185      5186
      5183      5182      5185      5187      5183      5182      5185      5188
      5184      5182      5185      5186      5184      5182      5185      5187
      5184      5182      5185      5188      5185      5188      5191      5192
      5185      5188      5191      5193      5185      5188      5191      5194
      5186      5185      5188      5189      5186      5185      5188      5190
      5186      5185      5188      5191      5187      5185      5188      5189
      5187      5185      5188      5190      5187      5185      5188      5191
      5189      5188      5191      5192      5189      5188      5191      5193
      5189      5188      5191      5194      5190      5188      5191      5192
      5190      5188      5191      5193      5190      5188      5191      5194
      5195      5198      5201      5202      5195      5198      5201      5203
      5195      5198      5201      5204      5196      5195      5198      5199
      5196      5195      5198      5200      5196      5195      5198      5201
      5197      5195      5198      5199      5197      5195      5198      5200
      5197      5195      5198      5201      5198      5201      5204      5205
      5198      5201      5204      5206      5198      5201      5204      5207
      5199      5198      5201      5202      5199      5198      5201      5203
      5199      5198      5201      5204      5200      5198      5201      5202
      5200      5198      5201      5203      5200      5198      5201      5204
      5201      5204      5207      5208      5201      5204      5207      5209
      5201      5204      5207      5210      5202      5201      5204      5205
      5202      5201      5204      5206      5202      5201      5204      5207
      5203      5201      5204      5205      5203      5201      5204      5206
      5203      5201      5204      5207      5204      5207      5210      5211
      5204      5207      5210      5212      5204      5207      5210      5213
      5205      5204      5207      5208      5205      5204      5207      5209
      5205      5204      5207      5210      5206      5204      5207      5208
      5206      5204      5207      5209      5206      5204      5207      5210
      5207      5210      5213      5214      5207      5210      5213      5215
      5207      5210      5213      5216      5208      5207      5210      5211
      5208      5207      5210      5212      5208      5207      5210      5213
      5209      5207      5210      5211      5209      5207      5210      5212
      5209      5207      5210      5213      5210      5213      5216      5217
      5210      5213      5216      5218      5210      5213      5216      5219
      5211      5210      5213      5214      5211      5210      5213      5215
      5211      5210      5213      5216      5212      5210      5213      5214
      5212      5210      5213      5215      5212      5210      5213      5216
      5213      5216      5219      5220      5213      5216      5219      5221
      5213      5216      5219      5222      5214      5213      5216      5217
      5214      5213      5216      5218      5214      5213      5216      5219
      5215      5213      5216      5217      5215      5213      5216      5218
      5215      5213      5216      5219      5216      5219      5222      5223
      5216      5219      5222      5224      5216      5219      5222      5225
      5217      5216      5219      5220      5217      5216      5219      5221
      5217      5216      5219      5222      5218      5216      5219      5220
      5218      5216      5219      5221      5218      5216      5219      5222
      5219      5222      5225      5226      5219      5222      5225      5227
      5219      5222      5225      5228      5220      5219      5222      5223
      5220      5219      5222      5224      5220      5219      5222      5225
      5221      5219      5222      5223      5221      5219      5222      5224
      5221      5219      5222      5225      5222      5225      5228      5229
      5222      5225      5228      5230      5222      5225      5228      5231
      5223      5222      5225      5226      5223      5222      5225      5227
      5223      5222      5225      5228      5224      5222      5225      5226
      5224      5222      5225      5227      5224      5222      5225      5228
      5225      5228      5231      5232      5225      5228      5231      5233
      5225      5228      5231      5234      5226      5225      5228      5229
      5226      5225      5228      5230      5226      5225      5228      5231
      5227      5225      5228      5229      5227      5225      5228      5230
      5227      5225      5228      5231      5228      5231      5234      5235
      5228      5231      5234      5236      5228      5231      5234      5237
      5229      5228      5231      5232      5229      5228      5231      5233
      5229      5228      5231      5234      5230      5228      5231      5232
      5230      5228      5231      5233      5230      5228      5231      5234
      5231      5234      5237      5238      5231      5234      5237      5239
      5231      5234      5237      5240      5232      5231      5234      5235
      5232      5231      5234      5236      5232      5231      5234      5237
      5233      5231      5234      5235      5233      5231      5234      5236
      5233      5231      5234      5237      5234      5237      5240      5241
      5234      5237      5240      5242      5234      5237      5240      5243
      5235      5234      5237      5238      5235      5234      5237      5239
      5235      5234      5237      5240      5236      5234      5237      5238
      5236      5234      5237      5239      5236      5234      5237      5240
      5238      5237      5240      5241      5238      5237      5240      5242
      5238      5237      5240      5243      5239      5237      5240      5241
      5239      5237      5240      5242      5239      5237      5240      5243
      5244      5248      5251      5252      5244      5248      5251      5282
      5244      5290      5287      5282      5244      5290      5287      5288
      5244      5290      5287      5289      5245      5244      5246      5247
      5245      5244      5248      5249      5245      5244      5248      5250
      5245      5244      5248      5251      5245      5244      5290      5287
      5245      5244      5290      5291      5245      5244      5290      5292
      5246      5244      5248      5249      5246      5244      5248      5250
      5246      5244      5248      5251      5246      5244      5290      5287
      5246      5244      5290      5291      5246      5244      5290      5292
      5247      5246      5244      5248      5247      5246      5244      5290
      5248      5244      5290      5287      5248      5244      5290      5291
      5248      5244      5290      5292      5248      5251      5252      5253
      5248      5251      5252      5254      5248      5251      5282      5280
      5248      5251      5282      5283      5248      5251      5282      5287
      5249      5248      5244      5290      5249      5248      5251      5252
      5249      5248      5251      5282      5250      5248      5244      5290
      5250      5248      5251      5252      5250      5248      5251      5282
      5251      5248      5244      5290      5251      5252      5254      5255
      5251      5252      5254      5256      5251      5252      5254      5257
      5251      5282      5280      5257      5251      5282      5280      5277
      5251      5282      5280      5281      5251      5282      5283      5284
      5251      5282      5283      5285      5251      5282      5283      5286
      5251      5282      5287      5288      5251      5282      5287      5289
      5251      5282      5287      5290      5252      5251      5282      5280
      5252      5251      5282      5283      5252      5251      5282      5287
      5252      5254      5257      5258      5252      5254      5257      5259
      5252      5254      5257      5280      5253      5252      5251      5282
      5253      5252      5254      5255      5253      5252      5254      5256
      5253      5252      5254      5257      5254      5252      5251      5282
      5254      5257      5259      5260      5254      5257      5259      5261
      5254      5257      5259      5269      5254      5257      5280      5277
      5254      5257      5280      5281      5254      5257      5280      5282
      5255      5254      5257      5258      5255      5254      5257      5259
      5255      5254      5257      5280      5256      5254      5257      5258
      5256      5254      5257      5259      5256      5254      5257      5280
      5257      5259      5261      5262      5257      5259      5261      5263
      5257      5259      5261      5264      5257      5259      5269      5267
      5257      5259      5269      5270      5257      5259      5269      5274
      5257      5280      5277      5274      5257      5280      5277      5278
      5257      5280      5277      5279      5257      5280      5282      5283
      5257      5280      5282      5287      5258      5257      5259      5260
      5258      5257      5259      5261      5258      5257      5259      5269
      5258      5257      5280      5277      5258      5257      5280      5281
      5258      5257      5280      5282      5259      5257      5280      5277
      5259      5257      5280      5281      5259      5257      5280      5282
      5259      5261      5264      5265      5259      5261      5264      5266
      5259      5261      5264      5267      5259      5269      5267      5264
      5259      5269      5267      5268      5259      5269      5267      5293
      5259      5269      5270      5271      5259      5269      5270      5272
      5259      5269      5270      5273      5259      5269      5274      5275
      5259      5269      5274      5276      5259      5269      5274      5277
      5260      5259      5257      5280      5260      5259      5261      5262
      5260      5259      5261      5263      5260      5259      5261      5264
      5260      5259      5269      5267      5260      5259      5269      5270
      5260      5259      5269      5274      5261      5259      5257      5280
      5261      5259      5269      5267      5261      5259      5269      5270
      5261      5259      5269      5274      5261      5264      5267      5268
      5261      5264      5267      5269      5261      5264      5267      5293
      5262      5261      5259      5269      5262      5261      5264      5265
      5262      5261      5264      5266      5262      5261      5264      5267
      5263      5261      5259      5269      5263      5261      5264      5265
      5263      5261      5264      5266      5263      5261      5264      5267
      5264      5261      5259      5269      5264      5267      5269      5270
      5264      5267      5269      5274      5264      5267      5293      5294
      5264      5267      5293      5295      5264      5267      5293      5299
      5265      5264      5267      5268      5265      5264      5267      5269
      5265      5264      5267      5293      5266      5264      5267      5268
      5266      5264      5267      5269      5266      5264      5267      5293
      5267      5269      5270      5271      5267      5269      5270      5272
      5267      5269      5270      5273      5267      5269      5274      5275
      5267      5269      5274      5276      5267      5269      5274      5277
      5267      5293      5295      5296      5267      5293      5295      5297
      5267      5293      5295      5298      5267      5293      5299      5300
      5267      5293      5299      5301      5267      5293      5299      5302
      5268      5267      5269      5270      5268      5267      5269      5274
      5268      5267      5293      5294      5268      5267      5293      5295
      5268      5267      5293      5299      5269      5259      5257      5280
      5269      5267      5293      5294      5269      5267      5293      5295
      5269      5267      5293      5299      5269      5274      5277      5278
      5269      5274      5277      5279      5269      5274      5277      5280
      5270      5269      5267      5293      5270      5269      5274      5275
      5270      5269      5274      5276      5270      5269      5274      5277
      5271      5270      5269      5274      5272      5270      5269      5274
      5273      5270      5269      5274      5274      5269      5267      5293
      5274      5277      5280      5281      5274      5277      5280      5282
      5275      5274      5277      5278      5275      5274      5277      5279
      5275      5274      5277      5280      5276      5274      5277      5278
      5276      5274      5277      5279      5276      5274      5277      5280
      5277      5280      5282      5283      5277      5280      5282      5287
      5278      5277      5280      5281      5278      5277      5280      5282
      5279      5277      5280      5281      5279      5277      5280      5282
      5280      5282      5283      5284      5280      5282      5283      5285
      5280      5282      5283      5286      5280      5282      5287      5288
      5280      5282      5287      5289      5280      5282      5287      5290
      5281      5280      5282      5283      5281      5280      5282      5287
      5282      5287      5290      5291      5282      5287      5290      5292
      5283      5282      5287      5288      5283      5282      5287      5289
      5283      5282      5287      5290      5284      5283      5282      5287
      5285      5283      5282      5287      5286      5283      5282      5287
      5288      5287      5290      5291      5288      5287      5290      5292
      5289      5287      5290      5291      5289      5287      5290      5292
      5293      5299      5302      5303      5293      5299      5302      5304
      5293      5299      5302      5305      5294      5293      5295      5296
      5294      5293      5295      5297      5294      5293      5295      5298
      5294      5293      5299      5300      5294      5293      5299      5301
      5294      5293      5299      5302      5295      5293      5299      5300
      5295      5293      5299      5301      5295      5293      5299      5302
      5296      5295      5293      5299      5297      5295      5293      5299
      5298      5295      5293      5299      5299      5302      5305      5306
      5299      5302      5305      5307      5299      5302      5305      5308
      5300      5299      5302      5303      5300      5299      5302      5304
      5300      5299      5302      5305      5301      5299      5302      5303
      5301      5299      5302      5304      5301      5299      5302      5305
      5302      5305      5308      5309      5302      5305      5308      5310
      5302      5305      5308      5314      5303      5302      5305      5306
      5303      5302      5305      5307      5303      5302      5305      5308
      5304      5302      5305      5306      5304      5302      5305      5307
      5304      5302      5305      5308      5305      5308      5310      5311
      5305      5308      5310      5312      5305      5308      5310      5313
      5305      5308      5314      5315      5305      5308      5314      5316
      5305      5308      5314      5317      5306      5305      5308      5309
      5306      5305      5308      5310      5306      5305      5308      5314
      5307      5305      5308      5309      5307      5305      5308      5310
      5307      5305      5308      5314      5309      5308      5310      5311
      5309      5308      5310      5312      5309      5308      5310      5313
      5309      5308      5314      5315      5309      5308      5314      5316
      5309      5308      5314      5317      5310      5308      5314      5315
      5310      5308      5314      5316      5310      5308      5314      5317
      5311      5310      5308      5314      5312      5310      5308      5314
      5313      5310      5308      5314      5318      5322      5325      5326
      5318      5322      5325      5356      5318      5364      5361      5356
      5318      5364      5361      5362      5318      5364      5361      5363
      5319      5318      5320      5321      5319      5318      5322      5323
      5319      5318      5322      5324      5319      5318      5322      5325
      5319      5318      5364      5361      5319      5318      5364      5365
      5319      5318      5364      5366      5320      5318      5322      5323
      5320      5318      5322      5324      5320      5318      5322      5325
      5320      5318      5364      5361      5320      5318      5364      5365
      5320      5318      5364      5366      5321      5320      5318      5322
      5321      5320      5318      5364      5322      5318      5364      5361
      5322      5318      5364      5365      5322      5318      5364      5366
      5322      5325      5326      5327      5322      5325      5326      5328
      5322      5325      5356      5354      5322      5325      5356      5357
      5322      5325      5356      5361      5323      5322      5318      5364
      5323      5322      5325      5326      5323      5322      5325      5356
      5324      5322      5318      5364      5324      5322      5325      5326
      5324      5322      5325      5356      5325      5322      5318      5364
      5325      5326      5328      5329      5325      5326      5328      5330
      5325      5326      5328      5331      5325      5356      5354      5331
      5325      5356      5354      5351      5325      5356      5354      5355
      5325      5356      5357      5358      5325      5356      5357      5359
      5325      5356      5357      5360      5325      5356      5361      5362
      5325      5356      5361      5363      5325      5356      5361      5364
      5326      5325      5356      5354      5326      5325      5356      5357
      5326      5325      5356      5361      5326      5328      5331      5332
      5326      5328      5331      5333      5326      5328      5331      5354
      5327      5326      5325      5356      5327      5326      5328      5329
      5327      5326      5328      5330      5327      5326      5328      5331
      5328      5326      5325      5356      5328      5331      5333      5334
      5328      5331      5333      5335      5328      5331      5333      5343
      5328      5331      5354      5351      5328      5331      5354      5355
      5328      5331      5354      5356      5329      5328      5331      5332
      5329      5328      5331      5333      5329      5328      5331      5354
      5330      5328      5331      5332      5330      5328      5331      5333
      5330      5328      5331      5354      5331      5333      5335      5336
      5331      5333      5335      5337      5331      5333      5335      5338
      5331      5333      5343      5341      5331      5333      5343      5344
      5331      5333      5343      5348      5331      5354      5351      5348
      5331      5354      5351      5352      5331      5354      5351      5353
      5331      5354      5356      5357      5331      5354      5356      5361
      5332      5331      5333      5334      5332      5331      5333      5335
      5332      5331      5333      5343      5332      5331      5354      5351
      5332      5331      5354      5355      5332      5331      5354      5356
      5333      5331      5354      5351      5333      5331      5354      5355
      5333      5331      5354      5356      5333      5335      5338      5339
      5333      5335      5338      5340      5333      5335      5338      5341
      5333      5343      5341      5338      5333      5343      5341      5342
      5333      5343      5341      5367      5333      5343      5344      5345
      5333      5343      5344      5346      5333      5343      5344      5347
      5333      5343      5348      5349      5333      5343      5348      5350
      5333      5343      5348      5351      5334      5333      5331      5354
      5334      5333      5335      5336      5334      5333      5335      5337
      5334      5333      5335      5338      5334      5333      5343      5341
      5334      5333      5343      5344      5334      5333      5343      5348
      5335      5333      5331      5354      5335      5333      5343      5341
      5335      5333      5343      5344      5335      5333      5343      5348
      5335      5338      5341      5342      5335      5338      5341      5343
      5335      5338      5341      5367      5336      5335      5333      5343
      5336      5335      5338      5339      5336      5335      5338      5340
      5336      5335      5338      5341      5337      5335      5333      5343
      5337      5335      5338      5339      5337      5335      5338      5340
      5337      5335      5338      5341      5338      5335      5333      5343
      5338      5341      5343      5344      5338      5341      5343      5348
      5338      5341      5367      5368      5338      5341      5367      5369
      5338      5341      5367      5373      5339      5338      5341      5342
      5339      5338      5341      5343      5339      5338      5341      5367
      5340      5338      5341      5342      5340      5338      5341      5343
      5340      5338      5341      5367      5341      5343      5344      5345
      5341      5343      5344      5346      5341      5343      5344      5347
      5341      5343      5348      5349      5341      5343      5348      5350
      5341      5343      5348      5351      5341      5367      5369      5370
      5341      5367      5369      5371      5341      5367      5369      5372
      5341      5367      5373      5374      5341      5367      5373      5375
      5341      5367      5373      5376      5342      5341      5343      5344
      5342      5341      5343      5348      5342      5341      5367      5368
      5342      5341      5367      5369      5342      5341      5367      5373
      5343      5333      5331      5354      5343      5341      5367      5368
      5343      5341      5367      5369      5343      5341      5367      5373
      5343      5348      5351      5352      5343      5348      5351      5353
      5343      5348      5351      5354      5344      5343      5341      5367
      5344      5343      5348      5349      5344      5343      5348      5350
      5344      5343      5348      5351      5345      5344      5343      5348
      5346      5344      5343      5348      5347      5344      5343      5348
      5348      5343      5341      5367      5348      5351      5354      5355
      5348      5351      5354      5356      5349      5348      5351      5352
      5349      5348      5351      5353      5349      5348      5351      5354
      5350      5348      5351      5352      5350      5348      5351      5353
      5350      5348      5351      5354      5351      5354      5356      5357
      5351      5354      5356      5361      5352      5351      5354      5355
      5352      5351      5354      5356      5353      5351      5354      5355
      5353      5351      5354      5356      5354      5356      5357      5358
      5354      5356      5357      5359      5354      5356      5357      5360
      5354      5356      5361      5362      5354      5356      5361      5363
      5354      5356      5361      5364      5355      5354      5356      5357
      5355      5354      5356      5361      5356      5361      5364      5365
      5356      5361      5364      5366      5357      5356      5361      5362
      5357      5356      5361      5363      5357      5356      5361      5364
      5358      5357      5356      5361      5359      5357      5356      5361
      5360      5357      5356      5361      5362      5361      5364      5365
      5362      5361      5364      5366      5363      5361      5364      5365
      5363      5361      5364      5366      5367      5373      5376      5377
      5367      5373      5376      5378      5367      5373      5376      5379
      5368      5367      5369      5370      5368      5367      5369      5371
      5368      5367      5369      5372      5368      5367      5373      5374
      5368      5367      5373      5375      5368      5367      5373      5376
      5369      5367      5373      5374      5369      5367      5373      5375
      5369      5367      5373      5376      5370      5369      5367      5373
      5371      5369      5367      5373      5372      5369      5367      5373
      5373      5376      5379      5380      5373      5376      5379      5381
      5373      5376      5379      5382      5374      5373      5376      5377
      5374      5373      5376      5378      5374      5373      5376      5379
      5375      5373      5376      5377      5375      5373      5376      5378
      5375      5373      5376      5379      5376      5379      5382      5383
      5376      5379      5382      5384      5376      5379      5382      5388
      5377      5376      5379      5380      5377      5376      5379      5381
      5377      5376      5379      5382      5378      5376      5379      5380
      5378      5376      5379      5381      5378      5376      5379      5382
      5379      5382      5384      5385      5379      5382      5384      5386
      5379      5382      5384      5387      5379      5382      5388      5389
      5379      5382      5388      5390      5379      5382      5388      5391
      5380      5379      5382      5383      5380      5379      5382      5384
      5380      5379      5382      5388      5381      5379      5382      5383
      5381      5379      5382      5384      5381      5379      5382      5388
      5383      5382      5384      5385      5383      5382      5384      5386
      5383      5382      5384      5387      5383      5382      5388      5389
      5383      5382      5388      5390      5383      5382      5388      5391
      5384      5382      5388      5389      5384      5382      5388      5390
      5384      5382      5388      5391      5385      5384      5382      5388
      5386      5384      5382      5388      5387      5384      5382      5388
      5392      5393      5408      5409      5392      5393      5408      5410
      5392      5393      5408      5414      5393      5392      5396      5397
      5393      5392      5396      5398      5393      5392      5396      5399
      5393      5392      5400      5401      5393      5392      5400      5402
      5393      5392      5400      5403      5393      5392      5404      5405
      5393      5392      5404      5406      5393      5392      5404      5407
      5393      5408      5414      5411      5394      5393      5392      5396
      5394      5393      5392      5400      5394      5393      5392      5404
      5394      5393      5408      5409      5394      5393      5408      5410
      5394      5393      5408      5414      5395      5393      5392      5396
      5395      5393      5392      5400      5395      5393      5392      5404
      5395      5393      5408      5409      5395      5393      5408      5410
      5395      5393      5408      5414      5396      5392      5393      5408
      5396      5392      5400      5401      5396      5392      5400      5402
      5396      5392      5400      5403      5396      5392      5404      5405
      5396      5392      5404      5406      5396      5392      5404      5407
      5397      5396      5392      5400      5397      5396      5392      5404
      5398      5396      5392      5400      5398      5396      5392      5404
      5399      5396      5392      5400      5399      5396      5392      5404
      5400      5392      5393      5408      5400      5392      5404      5405
      5400      5392      5404      5406      5400      5392      5404      5407
      5401      5400      5392      5404      5402      5400      5392      5404
      5403      5400      5392      5404      5404      5392      5393      5408
      5408      5414      5411      5412      5408      5414      5411      5413
      5408      5414      5411      5415      5409      5408      5414      5411
      5410      5408      5414      5411      5411      5415      5416      5417
      5411      5415      5416      5418      5411      5415      5416      5419
      5412      5411      5415      5416      5413      5411      5415      5416
      5414      5411      5415      5416      5415      5416      5419      5420
      5415      5416      5419      5421      5415      5416      5419      5427
      5416      5419      5421      5422      5416      5419      5427      5428
      5416      5419      5427      5429      5416      5419      5427      5430
      5417      5416      5419      5420      5417      5416      5419      5421
      5417      5416      5419      5427      5418      5416      5419      5420
      5418      5416      5419      5421      5418      5416      5419      5427
      5419      5421      5422      5423      5419      5421      5422      5424
      5419      5427      5430      5431      5420      5419      5421      5422
      5420      5419      5427      5428      5420      5419      5427      5429
      5420      5419      5427      5430      5421      5419      5427      5428
      5421      5419      5427      5429      5421      5419      5427      5430
      5421      5422      5424      5425      5421      5422      5424      5426
      5421      5422      5424      5436      5422      5421      5419      5427
      5422      5424      5436      5437      5422      5424      5436      5438
      5422      5424      5436      5439      5423      5422      5424      5425
      5423      5422      5424      5426      5423      5422      5424      5436
      5424      5436      5439      5440      5424      5436      5439      5441
      5424      5436      5439      5442      5425      5424      5436      5437
      5425      5424      5436      5438      5425      5424      5436      5439
      5426      5424      5436      5437      5426      5424      5436      5438
      5426      5424      5436      5439      5427      5430      5431      5432
      5427      5430      5431      5433      5428      5427      5430      5431
      5429      5427      5430      5431      5430      5431      5433      5434
      5430      5431      5433      5435      5430      5431      5433      5483
      5431      5433      5483      5484      5431      5433      5483      5485
      5431      5433      5483      5486      5432      5431      5433      5434
      5432      5431      5433      5435      5432      5431      5433      5483
      5433      5483      5486      5487      5433      5483      5486      5488
      5433      5483      5486      5489      5434      5433      5483      5484
      5434      5433      5483      5485      5434      5433      5483      5486
      5435      5433      5483      5484      5435      5433      5483      5485
      5435      5433      5483      5486      5436      5439      5442      5443
      5436      5439      5442      5444      5437      5436      5439      5440
      5437      5436      5439      5441      5437      5436      5439      5442
      5438      5436      5439      5440      5438      5436      5439      5441
      5438      5436      5439      5442      5439      5442      5444      5445
      5439      5442      5444      5446      5440      5439      5442      5443
      5440      5439      5442      5444      5441      5439      5442      5443
      5441      5439      5442      5444      5442      5444      5446      5447
      5442      5444      5446      5448      5442      5444      5446      5449
      5443      5442      5444      5445      5443      5442      5444      5446
      5444      5446      5449      5450      5444      5446      5449      5451
      5445      5444      5446      5447      5445      5444      5446      5448
      5445      5444      5446      5449      5446      5449      5451      5452
      5446      5449      5451      5453      5447      5446      5449      5450
      5447      5446      5449      5451      5448      5446      5449      5450
      5448      5446      5449      5451      5449      5451      5453      5454
      5449      5451      5453      5455      5449      5451      5453      5456
      5450      5449      5451      5452      5450      5449      5451      5453
      5451      5453      5456      5457      5451      5453      5456      5458
      5452      5451      5453      5454      5452      5451      5453      5455
      5452      5451      5453      5456      5453      5456      5458      5459
      5453      5456      5458      5460      5454      5453      5456      5457
      5454      5453      5456      5458      5455      5453      5456      5457
      5455      5453      5456      5458      5456      5458      5460      5461
      5456      5458      5460      5462      5456      5458      5460      5463
      5457      5456      5458      5459      5457      5456      5458      5460
      5458      5460      5463      5464      5458      5460      5463      5465
      5459      5458      5460      5461      5459      5458      5460      5462
      5459      5458      5460      5463      5460      5463      5465      5466
      5460      5463      5465      5467      5461      5460      5463      5464
      5461      5460      5463      5465      5462      5460      5463      5464
      5462      5460      5463      5465      5463      5465      5467      5468
      5463      5465      5467      5469      5463      5465      5467      5470
      5464      5463      5465      5466      5464      5463      5465      5467
      5465      5467      5470      5471      5465      5467      5470      5472
      5465      5467      5470      5473      5466      5465      5467      5468
      5466      5465      5467      5469      5466      5465      5467      5470
      5467      5470      5473      5474      5467      5470      5473      5475
      5467      5470      5473      5476      5468      5467      5470      5471
      5468      5467      5470      5472      5468      5467      5470      5473
      5469      5467      5470      5471      5469      5467      5470      5472
      5469      5467      5470      5473      5470      5473      5476      5477
      5470      5473      5476      5478      5470      5473      5476      5479
      5471      5470      5473      5474      5471      5470      5473      5475
      5471      5470      5473      5476      5472      5470      5473      5474
      5472      5470      5473      5475      5472      5470      5473      5476
      5473      5476      5479      5480      5473      5476      5479      5481
      5473      5476      5479      5482      5474      5473      5476      5477
      5474      5473      5476      5478      5474      5473      5476      5479
      5475      5473      5476      5477      5475      5473      5476      5478
      5475      5473      5476      5479      5477      5476      5479      5480
      5477      5476      5479      5481      5477      5476      5479      5482
      5478      5476      5479      5480      5478      5476      5479      5481
      5478      5476      5479      5482      5483      5486      5489      5490
      5483      5486      5489      5491      5483      5486      5489      5492
      5484      5483      5486      5487      5484      5483      5486      5488
      5484      5483      5486      5489      5485      5483      5486      5487
      5485      5483      5486      5488      5485      5483      5486      5489
      5486      5489      5492      5493      5486      5489      5492      5494
      5486      5489      5492      5495      5487      5486      5489      5490
      5487      5486      5489      5491      5487      5486      5489      5492
      5488      5486      5489      5490      5488      5486      5489      5491
      5488      5486      5489      5492      5489      5492      5495      5496
      5489      5492      5495      5497      5489      5492      5495      5498
      5490      5489      5492      5493      5490      5489      5492      5494
      5490      5489      5492      5495      5491      5489      5492      5493
      5491      5489      5492      5494      5491      5489      5492      5495
      5492      5495      5498      5499      5492      5495      5498      5500
      5492      5495      5498      5501      5493      5492      5495      5496
      5493      5492      5495      5497      5493      5492      5495      5498
      5494      5492      5495      5496      5494      5492      5495      5497
      5494      5492      5495      5498      5495      5498      5501      5502
      5495      5498      5501      5503      5495      5498      5501      5504
      5496      5495      5498      5499      5496      5495      5498      5500
      5496      5495      5498      5501      5497      5495      5498      5499
      5497      5495      5498      5500      5497      5495      5498      5501
      5498      5501      5504      5505      5498      5501      5504      5506
      5498      5501      5504      5507      5499      5498      5501      5502
      5499      5498      5501      5503      5499      5498      5501      5504
      5500      5498      5501      5502      5500      5498      5501      5503
      5500      5498      5501      5504      5501      5504      5507      5508
      5501      5504      5507      5509      5501      5504      5507      5510
      5502      5501      5504      5505      5502      5501      5504      5506
      5502      5501      5504      5507      5503      5501      5504      5505
      5503      5501      5504      5506      5503      5501      5504      5507
      5504      5507      5510      5511      5504      5507      5510      5512
      5504      5507      5510      5513      5505      5504      5507      5508
      5505      5504      5507      5509      5505      5504      5507      5510
      5506      5504      5507      5508      5506      5504      5507      5509
      5506      5504      5507      5510      5507      5510      5513      5514
      5507      5510      5513      5515      5507      5510      5513      5516
      5508      5507      5510      5511      5508      5507      5510      5512
      5508      5507      5510      5513      5509      5507      5510      5511
      5509      5507      5510      5512      5509      5507      5510      5513
      5510      5513      5516      5517      5510      5513      5516      5518
      5510      5513      5516      5519      5511      5510      5513      5514
      5511      5510      5513      5515      5511      5510      5513      5516
      5512      5510      5513      5514      5512      5510      5513      5515
      5512      5510      5513      5516      5513      5516      5519      5520
      5513      5516      5519      5521      5513      5516      5519      5522
      5514      5513      5516      5517      5514      5513      5516      5518
      5514      5513      5516      5519      5515      5513      5516      5517
      5515      5513      5516      5518      5515      5513      5516      5519
      5516      5519      5522      5523      5516      5519      5522      5524
      5516      5519      5522      5525      5517      5516      5519      5520
      5517      5516      5519      5521      5517      5516      5519      5522
      5518      5516      5519      5520      5518      5516      5519      5521
      5518      5516      5519      5522      5519      5522      5525      5526
      5519      5522      5525      5527      5519      5522      5525      5528
      5520      5519      5522      5523      5520      5519      5522      5524
      5520      5519      5522      5525      5521      5519      5522      5523
      5521      5519      5522      5524      5521      5519      5522      5525
      5522      5525      5528      5529      5522      5525      5528      5530
      5522      5525      5528      5531      5523      5522      5525      5526
      5523      5522      5525      5527      5523      5522      5525      5528
      5524      5522      5525      5526      5524      5522      5525      5527
      5524      5522      5525      5528      5526      5525      5528      5529
      5526      5525      5528      5530      5526      5525      5528      5531
      5527      5525      5528      5529      5527      5525      5528      5530
      5527      5525      5528      5531      5532      5533      5548      5549
      5532      5533      5548      5550      5532      5533      5548      5554
      5533      5532      5536      5537      5533      5532      5536      5538
      5533      5532      5536      5539      5533      5532      5540      5541
      5533      5532      5540      5542      5533      5532      5540      5543
      5533      5532      5544      5545      5533      5532      5544      5546
      5533      5532      5544      5547      5533      5548      5554      5551
      5534      5533      5532      5536      5534      5533      5532      5540
      5534      5533      5532      5544      5534      5533      5548      5549
      5534      5533      5548      5550      5534      5533      5548      5554
      5535      5533      5532      5536      5535      5533      5532      5540
      5535      5533      5532      5544      5535      5533      5548      5549
      5535      5533      5548      5550      5535      5533      5548      5554
      5536      5532      5533      5548      5536      5532      5540      5541
      5536      5532      5540      5542      5536      5532      5540      5543
      5536      5532      5544      5545      5536      5532      5544      5546
      5536      5532      5544      5547      5537      5536      5532      5540
      5537      5536      5532      5544      5538      5536      5532      5540
      5538      5536      5532      5544      5539      5536      5532      5540
      5539      5536      5532      5544      5540      5532      5533      5548
      5540      5532      5544      5545      5540      5532      5544      5546
      5540      5532      5544      5547      5541      5540      5532      5544
      5542      5540      5532      5544      5543      5540      5532      5544
      5544      5532      5533      5548      5548      5554      5551      5552
      5548      5554      5551      5553      5548      5554      5551      5555
      5549      5548      5554      5551      5550      5548      5554      5551
      5551      5555      5556      5557      5551      5555      5556      5558
      5551      5555      5556      5559      5552      5551      5555      5556
      5553      5551      5555      5556      5554      5551      5555      5556
      5555      5556      5559      5560      5555      5556      5559      5561
      5555      5556      5559      5567      5556      5559      5561      5562
      5556      5559      5567      5568      5556      5559      5567      5569
      5556      5559      5567      5570      5557      5556      5559      5560
      5557      5556      5559      5561      5557      5556      5559      5567
      5558      5556      5559      5560      5558      5556      5559      5561
      5558      5556      5559      5567      5559      5561      5562      5563
      5559      5561      5562      5564      5559      5567      5570      5571
      5560      5559      5561      5562      5560      5559      5567      5568
      5560      5559      5567      5569      5560      5559      5567      5570
      5561      5559      5567      5568      5561      5559      5567      5569
      5561      5559      5567      5570      5561      5562      5564      5565
      5561      5562      5564      5566      5561      5562      5564      5576
      5562      5561      5559      5567      5562      5564      5576      5577
      5562      5564      5576      5578      5562      5564      5576      5579
      5563      5562      5564      5565      5563      5562      5564      5566
      5563      5562      5564      5576      5564      5576      5579      5580
      5564      5576      5579      5581      5564      5576      5579      5582
      5565      5564      5576      5577      5565      5564      5576      5578
      5565      5564      5576      5579      5566      5564      5576      5577
      5566      5564      5576      5578      5566      5564      5576      5579
      5567      5570      5571      5572      5567      5570      5571      5573
      5568      5567      5570      5571      5569      5567      5570      5571
      5570      5571      5573      5574      5570      5571      5573      5575
      5570      5571      5573      5623      5571      5573      5623      5624
      5571      5573      5623      5625      5571      5573      5623      5626
      5572      5571      5573      5574      5572      5571      5573      5575
      5572      5571      5573      5623      5573      5623      5626      5627
      5573      5623      5626      5628      5573      5623      5626      5629
      5574      5573      5623      5624      5574      5573      5623      5625
      5574      5573      5623      5626      5575      5573      5623      5624
      5575      5573      5623      5625      5575      5573      5623      5626
      5576      5579      5582      5583      5576      5579      5582      5584
      5576      5579      5582      5585      5577      5576      5579      5580
      5577      5576      5579      5581      5577      5576      5579      5582
      5578      5576      5579      5580      5578      5576      5579      5581
      5578      5576      5579      5582      5579      5582      5585      5586
      5579      5582      5585      5587      5579      5582      5585      5588
      5580      5579      5582      5583      5580      5579      5582      5584
      5580      5579      5582      5585      5581      5579      5582      5583
      5581      5579      5582      5584      5581      5579      5582      5585
      5582      5585      5588      5589      5582      5585      5588      5590
      5582      5585      5588      5591      5583      5582      5585      5586
      5583      5582      5585      5587      5583      5582      5585      5588
      5584      5582      5585      5586      5584      5582      5585      5587
      5584      5582      5585      5588      5585      5588      5591      5592
      5585      5588      5591      5593      5585      5588      5591      5594
      5586      5585      5588      5589      5586      5585      5588      5590
      5586      5585      5588      5591      5587      5585      5588      5589
      5587      5585      5588      5590      5587      5585      5588      5591
      5588      5591      5594      5595      5588      5591      5594      5596
      5589      5588      5591      5592      5589      5588      5591      5593
      5589      5588      5591      5594      5590      5588      5591      5592
      5590      5588      5591      5593      5590      5588      5591      5594
      5591      5594      5596      5597      5591      5594      5596      5598
      5592      5591      5594      5595      5592      5591      5594      5596
      5593      5591      5594      5595      5593      5591      5594      5596
      5594      5596      5598      5599      5594      5596      5598      5600
      5594      5596      5598      5601      5595      5594      5596      5597
      5595      5594      5596      5598      5596      5598      5601      5602
      5596      5598      5601      5603      5596      5598      5601      5604
      5597      5596      5598      5599      5597      5596      5598      5600
      5597      5596      5598      5601      5598      5601      5604      5605
      5598      5601      5604      5606      5598      5601      5604      5607
      5599      5598      5601      5602      5599      5598      5601      5603
      5599      5598      5601      5604      5600      5598      5601      5602
      5600      5598      5601      5603      5600      5598      5601      5604
      5601      5604      5607      5608      5601      5604      5607      5609
      5601      5604      5607      5610      5602      5601      5604      5605
      5602      5601      5604      5606      5602      5601      5604      5607
      5603      5601      5604      5605      5603      5601      5604      5606
      5603      5601      5604      5607      5604      5607      5610      5611
      5604      5607      5610      5612      5604      5607      5610      5613
      5605      5604      5607      5608      5605      5604      5607      5609
      5605      5604      5607      5610      5606      5604      5607      5608
      5606      5604      5607      5609      5606      5604      5607      5610
      5607      5610      5613      5614      5607      5610      5613      5615
      5607      5610      5613      5616      5608      5607      5610      5611
      5608      5607      5610      5612      5608      5607      5610      5613
      5609      5607      5610      5611      5609      5607      5610      5612
      5609      5607      5610      5613      5610      5613      5616      5617
      5610      5613      5616      5618      5610      5613      5616      5619
      5611      5610      5613      5614      5611      5610      5613      5615
      5611      5610      5613      5616      5612      5610      5613      5614
      5612      5610      5613      5615      5612      5610      5613      5616
      5613      5616      5619      5620      5613      5616      5619      5621
      5613      5616      5619      5622      5614      5613      5616      5617
      5614      5613      5616      5618      5614      5613      5616      5619
      5615      5613      5616      5617      5615      5613      5616      5618
      5615      5613      5616      5619      5617      5616      5619      5620
      5617      5616      5619      5621      5617      5616      5619      5622
      5618      5616      5619      5620      5618      5616      5619      5621
      5618      5616      5619      5622      5623      5626      5629      5630
      5623      5626      5629      5631      5623      5626      5629      5632
      5624      5623      5626      5627      5624      5623      5626      5628
      5624      5623      5626      5629      5625      5623      5626      5627
      5625      5623      5626      5628      5625      5623      5626      5629
      5626      5629      5632      5633      5626      5629      5632      5634
      5626      5629      5632      5635      5627      5626      5629      5630
      5627      5626      5629      5631      5627      5626      5629      5632
      5628      5626      5629      5630      5628      5626      5629      5631
      5628      5626      5629      5632      5629      5632      5635      5636
      5629      5632      5635      5637      5629      5632      5635      5638
      5630      5629      5632      5633      5630      5629      5632      5634
      5630      5629      5632      5635      5631      5629      5632      5633
      5631      5629      5632      5634      5631      5629      5632      5635
      5632      5635      5638      5639      5632      5635      5638      5640
      5632      5635      5638      5641      5633      5632      5635      5636
      5633      5632      5635      5637      5633      5632      5635      5638
      5634      5632      5635      5636      5634      5632      5635      5637
      5634      5632      5635      5638      5635      5638      5641      5642
      5635      5638      5641      5643      5635      5638      5641      5644
      5636      5635      5638      5639      5636      5635      5638      5640
      5636      5635      5638      5641      5637      5635      5638      5639
      5637      5635      5638      5640      5637      5635      5638      5641
      5638      5641      5644      5645      5638      5641      5644      5646
      5638      5641      5644      5647      5639      5638      5641      5642
      5639      5638      5641      5643      5639      5638      5641      5644
      5640      5638      5641      5642      5640      5638      5641      5643
      5640      5638      5641      5644      5641      5644      5647      5648
      5641      5644      5647      5649      5641      5644      5647      5650
      5642      5641      5644      5645      5642      5641      5644      5646
      5642      5641      5644      5647      5643      5641      5644      5645
      5643      5641      5644      5646      5643      5641      5644      5647
      5644      5647      5650      5651      5644      5647      5650      5652
      5644      5647      5650      5653      5645      5644      5647      5648
      5645      5644      5647      5649      5645      5644      5647      5650
      5646      5644      5647      5648      5646      5644      5647      5649
      5646      5644      5647      5650      5647      5650      5653      5654
      5647      5650      5653      5655      5647      5650      5653      5656
      5648      5647      5650      5651      5648      5647      5650      5652
      5648      5647      5650      5653      5649      5647      5650      5651
      5649      5647      5650      5652      5649      5647      5650      5653
      5650      5653      5656      5657      5650      5653      5656      5658
      5650      5653      5656      5659      5651      5650      5653      5654
      5651      5650      5653      5655      5651      5650      5653      5656
      5652      5650      5653      5654      5652      5650      5653      5655
      5652      5650      5653      5656      5653      5656      5659      5660
      5653      5656      5659      5661      5653      5656      5659      5662
      5654      5653      5656      5657      5654      5653      5656      5658
      5654      5653      5656      5659      5655      5653      5656      5657
      5655      5653      5656      5658      5655      5653      5656      5659
      5656      5659      5662      5663      5656      5659      5662      5664
      5656      5659      5662      5665      5657      5656      5659      5660
      5657      5656      5659      5661      5657      5656      5659      5662
      5658      5656      5659      5660      5658      5656      5659      5661
      5658      5656      5659      5662      5660      5659      5662      5663
      5660      5659      5662      5664      5660      5659      5662      5665
      5661      5659      5662      5663      5661      5659      5662      5664
      5661      5659      5662      5665      5666      5670      5673      5674
      5666      5670      5673      5704      5666      5712      5709      5704
      5666      5712      5709      5710      5666      5712      5709      5711
      5667      5666      5668      5669      5667      5666      5670      5671
      5667      5666      5670      5672      5667      5666      5670      5673
      5667      5666      5712      5709      5667      5666      5712      5713
      5667      5666      5712      5714      5668      5666      5670      5671
      5668      5666      5670      5672      5668      5666      5670      5673
      5668      5666      5712      5709      5668      5666      5712      5713
      5668      5666      5712      5714      5669      5668      5666      5670
      5669      5668      5666      5712      5670      5666      5712      5709
      5670      5666      5712      5713      5670      5666      5712      5714
      5670      5673      5674      5675      5670      5673      5674      5676
      5670      5673      5704      5702      5670      5673      5704      5705
      5670      5673      5704      5709      5671      5670      5666      5712
      5671      5670      5673      5674      5671      5670      5673      5704
      5672      5670      5666      5712      5672      5670      5673      5674
      5672      5670      5673      5704      5673      5670      5666      5712
      5673      5674      5676      5677      5673      5674      5676      5678
      5673      5674      5676      5679      5673      5704      5702      5679
      5673      5704      5702      5699      5673      5704      5702      5703
      5673      5704      5705      5706      5673      5704      5705      5707
      5673      5704      5705      5708      5673      5704      5709      5710
      5673      5704      5709      5711      5673      5704      5709      5712
      5674      5673      5704      5702      5674      5673      5704      5705
      5674      5673      5704      5709      5674      5676      5679      5680
      5674      5676      5679      5681      5674      5676      5679      5702
      5675      5674      5673      5704      5675      5674      5676      5677
      5675      5674      5676      5678      5675      5674      5676      5679
      5676      5674      5673      5704      5676      5679      5681      5682
      5676      5679      5681      5683      5676      5679      5681      5691
      5676      5679      5702      5699      5676      5679      5702      5703
      5676      5679      5702      5704      5677      5676      5679      5680
      5677      5676      5679      5681      5677      5676      5679      5702
      5678      5676      5679      5680      5678      5676      5679      5681
      5678      5676      5679      5702      5679      5681      5683      5684
      5679      5681      5683      5685      5679      5681      5683      5686
      5679      5681      5691      5689      5679      5681      5691      5692
      5679      5681      5691      5696      5679      5702      5699      5696
      5679      5702      5699      5700      5679      5702      5699      5701
      5679      5702      5704      5705      5679      5702      5704      5709
      5680      5679      5681      5682      5680      5679      5681      5683
      5680      5679      5681      5691      5680      5679      5702      5699
      5680      5679      5702      5703      5680      5679      5702      5704
      5681      5679      5702      5699      5681      5679      5702      5703
      5681      5679      5702      5704      5681      5683      5686      5687
      5681      5683      5686      5688      5681      5683      5686      5689
      5681      5691      5689      5686      5681      5691      5689      5690
      5681      5691      5689      5715      5681      5691      5692      5693
      5681      5691      5692      5694      5681      5691      5692      5695
      5681      5691      5696      5697      5681      5691      5696      5698
      5681      5691      5696      5699      5682      5681      5679      5702
      5682      5681      5683      5684      5682      5681      5683      5685
      5682      5681      5683      5686      5682      5681      5691      5689
      5682      5681      5691      5692      5682      5681      5691      5696
      5683      5681      5679      5702      5683      5681      5691      5689
      5683      5681      5691      5692      5683      5681      5691      5696
      5683      5686      5689      5690      5683      5686      5689      5691
      5683      5686      5689      5715      5684      5683      5681      5691
      5684      5683      5686      5687      5684      5683      5686      5688
      5684      5683      5686      5689      5685      5683      5681      5691
      5685      5683      5686      5687      5685      5683      5686      5688
      5685      5683      5686      5689      5686      5683      5681      5691
      5686      5689      5691      5692      5686      5689      5691      5696
      5686      5689      5715      5716      5686      5689      5715      5717
      5686      5689      5715      5721      5687      5686      5689      5690
      5687      5686      5689      5691      5687      5686      5689      5715
      5688      5686      5689      5690      5688      5686      5689      5691
      5688      5686      5689      5715      5689      5691      5692      5693
      5689      5691      5692      5694      5689      5691      5692      5695
      5689      5691      5696      5697      5689      5691      5696      5698
      5689      5691      5696      5699      5689      5715      5717      5718
      5689      5715      5717      5719      5689      5715      5717      5720
      5689      5715      5721      5722      5689      5715      5721      5723
      5689      5715      5721      5724      5690      5689      5691      5692
      5690      5689      5691      5696      5690      5689      5715      5716
      5690      5689      5715      5717      5690      5689      5715      5721
      5691      5681      5679      5702      5691      5689      5715      5716
      5691      5689      5715      5717      5691      5689      5715      5721
      5691      5696      5699      5700      5691      5696      5699      5701
      5691      5696      5699      5702      5692      5691      5689      5715
      5692      5691      5696      5697      5692      5691      5696      5698
      5692      5691      5696      5699      5693      5692      5691      5696
      5694      5692      5691      5696      5695      5692      5691      5696
      5696      5691      5689      5715      5696      5699      5702      5703
      5696      5699      5702      5704      5697      5696      5699      5700
      5697      5696      5699      5701      5697      5696      5699      5702
      5698      5696      5699      5700      5698      5696      5699      5701
      5698      5696      5699      5702      5699      5702      5704      5705
      5699      5702      5704      5709      5700      5699      5702      5703
      5700      5699      5702      5704      5701      5699      5702      5703
      5701      5699      5702      5704      5702      5704      5705      5706
      5702      5704      5705      5707      5702      5704      5705      5708
      5702      5704      5709      5710      5702      5704      5709      5711
      5702      5704      5709      5712      5703      5702      5704      5705
      5703      5702      5704      5709      5704      5709      5712      5713
      5704      5709      5712      5714      5705      5704      5709      5710
      5705      5704      5709      5711      5705      5704      5709      5712
      5706      5705      5704      5709      5707      5705      5704      5709
      5708      5705      5704      5709      5710      5709      5712      5713
      5710      5709      5712      5714      5711      5709      5712      5713
      5711      5709      5712      5714      5715      5721      5724      5725
      5715      5721      5724      5726      5715      5721      5724      5727
      5716      5715      5717      5718      5716      5715      5717      5719
      5716      5715      5717      5720      5716      5715      5721      5722
      5716      5715      5721      5723      5716      5715      5721      5724
      5717      5715      5721      5722      5717      5715      5721      5723
      5717      5715      5721      5724      5718      5717      5715      5721
      5719      5717      5715      5721      5720      5717      5715      5721
      5721      5724      5727      5728      5721      5724      5727      5729
      5721      5724      5727      5730      5722      5721      5724      5725
      5722      5721      5724      5726      5722      5721      5724      5727
      5723      5721      5724      5725      5723      5721      5724      5726
      5723      5721      5724      5727      5724      5727      5730      5731
      5724      5727      5730      5732      5724      5727      5730      5736
      5725      5724      5727      5728      5725      5724      5727      5729
      5725      5724      5727      5730      5726      5724      5727      5728
      5726      5724      5727      5729      5726      5724      5727      5730
      5727      5730      5732      5733      5727      5730      5732      5734
      5727      5730      5732      5735      5727      5730      5736      5737
      5727      5730      5736      5738      5727      5730      5736      5739
      5728      5727      5730      5731      5728      5727      5730      5732
      5728      5727      5730      5736      5729      5727      5730      5731
      5729      5727      5730      5732      5729      5727      5730      5736
      5731      5730      5732      5733      5731      5730      5732      5734
      5731      5730      5732      5735      5731      5730      5736      5737
      5731      5730      5736      5738      5731      5730      5736      5739
      5732      5730      5736      5737      5732      5730      5736      5738
      5732      5730      5736      5739      5733      5732      5730      5736
      5734      5732      5730      5736      5735      5732      5730      5736
      5740      5744      5747      5748      5740      5744      5747      5778
      5740      5786      5783      5778      5740      5786      5783      5784
      5740      5786      5783      5785      5741      5740      5742      5743
      5741      5740      5744      5745      5741      5740      5744      5746
      5741      5740      5744      5747      5741      5740      5786      5783
      5741      5740      5786      5787      5741      5740      5786      5788
      5742      5740      5744      5745      5742      5740      5744      5746
      5742      5740      5744      5747      5742      5740      5786      5783
      5742      5740      5786      5787      5742      5740      5786      5788
      5743      5742      5740      5744      5743      5742      5740      5786
      5744      5740      5786      5783      5744      5740      5786      5787
      5744      5740      5786      5788      5744      5747      5748      5749
      5744      5747      5748      5750      5744      5747      5778      5776
      5744      5747      5778      5779      5744      5747      5778      5783
      5745      5744      5740      5786      5745      5744      5747      5748
      5745      5744      5747      5778      5746      5744      5740      5786
      5746      5744      5747      5748      5746      5744      5747      5778
      5747      5744      5740      5786      5747      5748      5750      5751
      5747      5748      5750      5752      5747      5748      5750      5753
      5747      5778      5776      5753      5747      5778      5776      5773
      5747      5778      5776      5777      5747      5778      5779      5780
      5747      5778      5779      5781      5747      5778      5779      5782
      5747      5778      5783      5784      5747      5778      5783      5785
      5747      5778      5783      5786      5748      5747      5778      5776
      5748      5747      5778      5779      5748      5747      5778      5783
      5748      5750      5753      5754      5748      5750      5753      5755
      5748      5750      5753      5776      5749      5748      5747      5778
      5749      5748      5750      5751      5749      5748      5750      5752
      5749      5748      5750      5753      5750      5748      5747      5778
      5750      5753      5755      5756      5750      5753      5755      5757
      5750      5753      5755      5765      5750      5753      5776      5773
      5750      5753      5776      5777      5750      5753      5776      5778
      5751      5750      5753      5754      5751      5750      5753      5755
      5751      5750      5753      5776      5752      5750      5753      5754
      5752      5750      5753      5755      5752      5750      5753      5776
      5753      5755      5757      5758      5753      5755      5757      5759
      5753      5755      5757      5760      5753      5755      5765      5763
      5753      5755      5765      5766      5753      5755      5765      5770
      5753      5776      5773      5770      5753      5776      5773      5774
      5753      5776      5773      5775      5753      5776      5778      5779
      5753      5776      5778      5783      5754      5753      5755      5756
      5754      5753      5755      5757      5754      5753      5755      5765
      5754      5753      5776      5773      5754      5753      5776      5777
      5754      5753      5776      5778      5755      5753      5776      5773
      5755      5753      5776      5777      5755      5753      5776      5778
      5755      5757      5760      5761      5755      5757      5760      5762
      5755      5757      5760      5763      5755      5765      5763      5760
      5755      5765      5763      5764      5755      5765      5763      5789
      5755      5765      5766      5767      5755      5765      5766      5768
      5755      5765      5766      5769      5755      5765      5770      5771
      5755      5765      5770      5772      5755      5765      5770      5773
      5756      5755      5753      5776      5756      5755      5757      5758
      5756      5755      5757      5759      5756      5755      5757      5760
      5756      5755      5765      5763      5756      5755      5765      5766
      5756      5755      5765      5770      5757      5755      5753      5776
      5757      5755      5765      5763      5757      5755      5765      5766
      5757      5755      5765      5770      5757      5760      5763      5764
      5757      5760      5763      5765      5757      5760      5763      5789
      5758      5757      5755      5765      5758      5757      5760      5761
      5758      5757      5760      5762      5758      5757      5760      5763
      5759      5757      5755      5765      5759      5757      5760      5761
      5759      5757      5760      5762      5759      5757      5760      5763
      5760      5757      5755      5765      5760      5763      5765      5766
      5760      5763      5765      5770      5760      5763      5789      5790
      5760      5763      5789      5791      5760      5763      5789      5795
      5761      5760      5763      5764      5761      5760      5763      5765
      5761      5760      5763      5789      5762      5760      5763      5764
      5762      5760      5763      5765      5762      5760      5763      5789
      5763      5765      5766      5767      5763      5765      5766      5768
      5763      5765      5766      5769      5763      5765      5770      5771
      5763      5765      5770      5772      5763      5765      5770      5773
      5763      5789      5791      5792      5763      5789      5791      5793
      5763      5789      5791      5794      5763      5789      5795      5796
      5763      5789      5795      5797      5763      5789      5795      5798
      5764      5763      5765      5766      5764      5763      5765      5770
      5764      5763      5789      5790      5764      5763      5789      5791
      5764      5763      5789      5795      5765      5755      5753      5776
      5765      5763      5789      5790      5765      5763      5789      5791
      5765      5763      5789      5795      5765      5770      5773      5774
      5765      5770      5773      5775      5765      5770      5773      5776
      5766      5765      5763      5789      5766      5765      5770      5771
      5766      5765      5770      5772      5766      5765      5770      5773
      5767      5766      5765      5770      5768      5766      5765      5770
      5769      5766      5765      5770      5770      5765      5763      5789
      5770      5773      5776      5777      5770      5773      5776      5778
      5771      5770      5773      5774      5771      5770      5773      5775
      5771      5770      5773      5776      5772      5770      5773      5774
      5772      5770      5773      5775      5772      5770      5773      5776
      5773      5776      5778      5779      5773      5776      5778      5783
      5774      5773      5776      5777      5774      5773      5776      5778
      5775      5773      5776      5777      5775      5773      5776      5778
      5776      5778      5779      5780      5776      5778      5779      5781
      5776      5778      5779      5782      5776      5778      5783      5784
      5776      5778      5783      5785      5776      5778      5783      5786
      5777      5776      5778      5779      5777      5776      5778      5783
      5778      5783      5786      5787      5778      5783      5786      5788
      5779      5778      5783      5784      5779      5778      5783      5785
      5779      5778      5783      5786      5780      5779      5778      5783
      5781      5779      5778      5783      5782      5779      5778      5783
      5784      5783      5786      5787      5784      5783      5786      5788
      5785      5783      5786      5787      5785      5783      5786      5788
      5789      5795      5798      5799      5789      5795      5798      5800
      5789      5795      5798      5801      5790      5789      5791      5792
      5790      5789      5791      5793      5790      5789      5791      5794
      5790      5789      5795      5796      5790      5789      5795      5797
      5790      5789      5795      5798      5791      5789      5795      5796
      5791      5789      5795      5797      5791      5789      5795      5798
      5792      5791      5789      5795      5793      5791      5789      5795
      5794      5791      5789      5795      5795      5798      5801      5802
      5795      5798      5801      5803      5795      5798      5801      5804
      5796      5795      5798      5799      5796      5795      5798      5800
      5796      5795      5798      5801      5797      5795      5798      5799
      5797      5795      5798      5800      5797      5795      5798      5801
      5798      5801      5804      5805      5798      5801      5804      5806
      5798      5801      5804      5810      5799      5798      5801      5802
      5799      5798      5801      5803      5799      5798      5801      5804
      5800      5798      5801      5802      5800      5798      5801      5803
      5800      5798      5801      5804      5801      5804      5806      5807
      5801      5804      5806      5808      5801      5804      5806      5809
      5801      5804      5810      5811      5801      5804      5810      5812
      5801      5804      5810      5813      5802      5801      5804      5805
      5802      5801      5804      5806      5802      5801      5804      5810
      5803      5801      5804      5805      5803      5801      5804      5806
      5803      5801      5804      5810      5805      5804      5806      5807
      5805      5804      5806      5808      5805      5804      5806      5809
      5805      5804      5810      5811      5805      5804      5810      5812
      5805      5804      5810      5813      5806      5804      5810      5811
      5806      5804      5810      5812      5806      5804      5810      5813
      5807      5806      5804      5810      5808      5806      5804      5810
      5809      5806      5804      5810      5814      5827      5830      5831
      5814      5827      5830      5832      5814      5827      5830      5837
      5815      5814      5819      5820      5815      5814      5819      5821
      5815      5814      5819      5822      5815      5814      5823      5824
      5815      5814      5823      5825      5815      5814      5823      5826
      5815      5814      5827      5828      5815      5814      5827      5829
      5815      5814      5827      5830      5816      5815      5814      5819
      5816      5815      5814      5823      5816      5815      5814      5827
      5817      5815      5814      5819      5817      5815      5814      5823
      5817      5815      5814      5827      5818      5815      5814      5819
      5818      5815      5814      5823      5818      5815      5814      5827
      5819      5814      5823      5824      5819      5814      5823      5825
      5819      5814      5823      5826      5819      5814      5827      5828
      5819      5814      5827      5829      5819      5814      5827      5830
      5820      5819      5814      5823      5820      5819      5814      5827
      5821      5819      5814      5823      5821      5819      5814      5827
      5822      5819      5814      5823      5822      5819      5814      5827
      5823      5814      5827      5828      5823      5814      5827      5829
      5823      5814      5827      5830      5824      5823      5814      5827
      5825      5823      5814      5827      5826      5823      5814      5827
      5827      5830      5837      5833      5828      5827      5830      5831
      5828      5827      5830      5832      5828      5827      5830      5837
      5829      5827      5830      5831      5829      5827      5830      5832
      5829      5827      5830      5837      5830      5837      5833      5834
      5830      5837      5833      5835      5830      5837      5833      5836
      5831      5830      5837      5833      5832      5830      5837      5833
      5833      5836      5838      5839      5833      5836      5838      5840
      5833      5836      5838      5843      5834      5833      5836      5838
      5835      5833      5836      5838      5836      5838      5843      5841
      5836      5838      5843      5844      5836      5838      5843      5845
      5837      5833      5836      5838      5838      5843      5841      5842
      5838      5843      5841      5893      5838      5843      5845      5846
      5838      5843      5845      5847      5838      5843      5845      5849
      5839      5838      5843      5841      5839      5838      5843      5844
      5839      5838      5843      5845      5840      5838      5843      5841
      5840      5838      5843      5844      5840      5838      5843      5845
      5841      5843      5845      5846      5841      5843      5845      5847
      5841      5843      5845      5849      5841      5893      5895      5896
      5841      5893      5895      5897      5841      5893      5895      5898
      5842      5841      5843      5844      5842      5841      5843      5845
      5842      5841      5893      5894      5842      5841      5893      5895
      5843      5841      5893      5894      5843      5841      5893      5895
      5843      5845      5847      5848      5843      5845      5849      5850
      5843      5845      5849      5851      5844      5843      5841      5893
      5844      5843      5845      5846      5844      5843      5845      5847
      5844      5843      5845      5849      5845      5843      5841      5893
      5845      5849      5851      5852      5845      5849      5851      5853
      5846      5845      5847      5848      5846      5845      5849      5850
      5846      5845      5849      5851      5847      5845      5849      5850
      5847      5845      5849      5851      5848      5847      5845      5849
      5849      5851      5853      5854      5849      5851      5853      5855
      5849      5851      5853      5856      5850      5849      5851      5852
      5850      5849      5851      5853      5851      5853      5856      5857
      5851      5853      5856      5858      5851      5853      5856      5859
      5852      5851      5853      5854      5852      5851      5853      5855
      5852      5851      5853      5856      5853      5856      5859      5860
      5853      5856      5859      5861      5853      5856      5859      5862
      5854      5853      5856      5857      5854      5853      5856      5858
      5854      5853      5856      5859      5855      5853      5856      5857
      5855      5853      5856      5858      5855      5853      5856      5859
      5856      5859      5862      5863      5856      5859      5862      5864
      5856      5859      5862      5865      5857      5856      5859      5860
      5857      5856      5859      5861      5857      5856      5859      5862
      5858      5856      5859      5860      5858      5856      5859      5861
      5858      5856      5859      5862      5859      5862      5865      5866
      5859      5862      5865      5867      5859      5862      5865      5868
      5860      5859      5862      5863      5860      5859      5862      5864
      5860      5859      5862      5865      5861      5859      5862      5863
      5861      5859      5862      5864      5861      5859      5862      5865
      5862      5865      5868      5869      5862      5865      5868      5870
      5862      5865      5868      5871      5863      5862      5865      5866
      5863      5862      5865      5867      5863      5862      5865      5868
      5864      5862      5865      5866      5864      5862      5865      5867
      5864      5862      5865      5868      5865      5868      5871      5872
      5865      5868      5871      5873      5865      5868      5871      5874
      5866      5865      5868      5869      5866      5865      5868      5870
      5866      5865      5868      5871      5867      5865      5868      5869
      5867      5865      5868      5870      5867      5865      5868      5871
      5868      5871      5874      5875      5868      5871      5874      5876
      5868      5871      5874      5877      5869      5868      5871      5872
      5869      5868      5871      5873      5869      5868      5871      5874
      5870      5868      5871      5872      5870      5868      5871      5873
      5870      5868      5871      5874      5871      5874      5877      5878
      5871      5874      5877      5879      5871      5874      5877      5880
      5872      5871      5874      5875      5872      5871      5874      5876
      5872      5871      5874      5877      5873      5871      5874      5875
      5873      5871      5874      5876      5873      5871      5874      5877
      5874      5877      5880      5881      5874      5877      5880      5882
      5874      5877      5880      5883      5875      5874      5877      5878
      5875      5874      5877      5879      5875      5874      5877      5880
      5876      5874      5877      5878      5876      5874      5877      5879
      5876      5874      5877      5880      5877      5880      5883      5884
      5877      5880      5883      5885      5877      5880      5883      5886
      5878      5877      5880      5881      5878      5877      5880      5882
      5878      5877      5880      5883      5879      5877      5880      5881
      5879      5877      5880      5882      5879      5877      5880      5883
      5880      5883      5886      5887      5880      5883      5886      5888
      5880      5883      5886      5889      5881      5880      5883      5884
      5881      5880      5883      5885      5881      5880      5883      5886
      5882      5880      5883      5884      5882      5880      5883      5885
      5882      5880      5883      5886      5883      5886      5889      5890
      5883      5886      5889      5891      5883      5886      5889      5892
      5884      5883      5886      5887      5884      5883      5886      5888
      5884      5883      5886      5889      5885      5883      5886      5887
      5885      5883      5886      5888      5885      5883      5886      5889
      5887      5886      5889      5890      5887      5886      5889      5891
      5887      5886      5889      5892      5888      5886      5889      5890
      5888      5886      5889      5891      5888      5886      5889      5892
      5893      5895      5898      5899      5893      5895      5898      5900
      5893      5895      5898      5901      5894      5893      5895      5896
      5894      5893      5895      5897      5894      5893      5895      5898
      5895      5898      5901      5902      5895      5898      5901      5903
      5895      5898      5901      5904      5896      5895      5898      5899
      5896      5895      5898      5900      5896      5895      5898      5901
      5897      5895      5898      5899      5897      5895      5898      5900
      5897      5895      5898      5901      5898      5901      5904      5905
      5898      5901      5904      5906      5898      5901      5904      5907
      5899      5898      5901      5902      5899      5898      5901      5903
      5899      5898      5901      5904      5900      5898      5901      5902
      5900      5898      5901      5903      5900      5898      5901      5904
      5901      5904      5907      5908      5901      5904      5907      5909
      5901      5904      5907      5910      5902      5901      5904      5905
      5902      5901      5904      5906      5902      5901      5904      5907
      5903      5901      5904      5905      5903      5901      5904      5906
      5903      5901      5904      5907      5904      5907      5910      5911
      5904      5907      5910      5912      5904      5907      5910      5913
      5905      5904      5907      5908      5905      5904      5907      5909
      5905      5904      5907      5910      5906      5904      5907      5908
      5906      5904      5907      5909      5906      5904      5907      5910
      5907      5910      5913      5914      5907      5910      5913      5915
      5907      5910      5913      5916      5908      5907      5910      5911
      5908      5907      5910      5912      5908      5907      5910      5913
      5909      5907      5910      5911      5909      5907      5910      5912
      5909      5907      5910      5913      5910      5913      5916      5917
      5910      5913      5916      5918      5911      5910      5913      5914
      5911      5910      5913      5915      5911      5910      5913      5916
      5912      5910      5913      5914      5912      5910      5913      5915
      5912      5910      5913      5916      5913      5916      5918      5919
      5913      5916      5918      5920      5914      5913      5916      5917
      5914      5913      5916      5918      5915      5913      5916      5917
      5915      5913      5916      5918      5916      5918      5920      5921
      5916      5918      5920      5922      5916      5918      5920      5923
      5917      5916      5918      5919      5917      5916      5918      5920
      5918      5920      5923      5924      5918      5920      5923      5925
      5918      5920      5923      5926      5919      5918      5920      5921
      5919      5918      5920      5922      5919      5918      5920      5923
      5920      5923      5926      5927      5920      5923      5926      5928
      5920      5923      5926      5929      5921      5920      5923      5924
      5921      5920      5923      5925      5921      5920      5923      5926
      5922      5920      5923      5924      5922      5920      5923      5925
      5922      5920      5923      5926      5923      5926      5929      5930
      5923      5926      5929      5931      5923      5926      5929      5932
      5924      5923      5926      5927      5924      5923      5926      5928
      5924      5923      5926      5929      5925      5923      5926      5927
      5925      5923      5926      5928      5925      5923      5926      5929
      5926      5929      5932      5933      5926      5929      5932      5934
      5926      5929      5932      5935      5927      5926      5929      5930
      5927      5926      5929      5931      5927      5926      5929      5932
      5928      5926      5929      5930      5928      5926      5929      5931
      5928      5926      5929      5932      5929      5932      5935      5936
      5929      5932      5935      5937      5929      5932      5935      5938
      5930      5929      5932      5933      5930      5929      5932      5934
      5930      5929      5932      5935      5931      5929      5932      5933
      5931      5929      5932      5934      5931      5929      5932      5935
      5932      5935      5938      5939      5932      5935      5938      5940
      5932      5935      5938      5941      5933      5932      5935      5936
      5933      5932      5935      5937      5933      5932      5935      5938
      5934      5932      5935      5936      5934      5932      5935      5937
      5934      5932      5935      5938      5935      5938      5941      5942
      5935      5938      5941      5943      5935      5938      5941      5944
      5936      5935      5938      5939      5936      5935      5938      5940
      5936      5935      5938      5941      5937      5935      5938      5939
      5937      5935      5938      5940      5937      5935      5938      5941
      5939      5938      5941      5942      5939      5938      5941      5943
      5939      5938      5941      5944      5940      5938      5941      5942
      5940      5938      5941      5943      5940      5938      5941      5944
      5945      5946      5961      5962      5945      5946      5961      5963
      5945      5946      5961      5967      5946      5945      5949      5950
      5946      5945      5949      5951      5946      5945      5949      5952
      5946      5945      5953      5954      5946      5945      5953      5955
      5946      5945      5953      5956      5946      5945      5957      5958
      5946      5945      5957      5959      5946      5945      5957      5960
      5946      5961      5967      5964      5947      5946      5945      5949
      5947      5946      5945      5953      5947      5946      5945      5957
      5947      5946      5961      5962      5947      5946      5961      5963
      5947      5946      5961      5967      5948      5946      5945      5949
      5948      5946      5945      5953      5948      5946      5945      5957
      5948      5946      5961      5962      5948      5946      5961      5963
      5948      5946      5961      5967      5949      5945      5946      5961
      5949      5945      5953      5954      5949      5945      5953      5955
      5949      5945      5953      5956      5949      5945      5957      5958
      5949      5945      5957      5959      5949      5945      5957      5960
      5950      5949      5945      5953      5950      5949      5945      5957
      5951      5949      5945      5953      5951      5949      5945      5957
      5952      5949      5945      5953      5952      5949      5945      5957
      5953      5945      5946      5961      5953      5945      5957      5958
      5953      5945      5957      5959      5953      5945      5957      5960
      5954      5953      5945      5957      5955      5953      5945      5957
      5956      5953      5945      5957      5957      5945      5946      5961
      5961      5967      5964      5965      5961      5967      5964      5966
      5961      5967      5964      5968      5962      5961      5967      5964
      5963      5961      5967      5964      5964      5968      5969      5970
      5964      5968      5969      5971      5964      5968      5969      5972
      5965      5964      5968      5969      5966      5964      5968      5969
      5967      5964      5968      5969      5968      5969      5972      5973
      5968      5969      5972      5974      5968      5969      5972      5980
      5969      5972      5974      5975      5969      5972      5980      5981
      5969      5972      5980      5982      5969      5972      5980      5983
      5970      5969      5972      5973      5970      5969      5972      5974
      5970      5969      5972      5980      5971      5969      5972      5973
      5971      5969      5972      5974      5971      5969      5972      5980
      5972      5974      5975      5976      5972      5974      5975      5977
      5972      5980      5983      5984      5973      5972      5974      5975
      5973      5972      5980      5981      5973      5972      5980      5982
      5973      5972      5980      5983      5974      5972      5980      5981
      5974      5972      5980      5982      5974      5972      5980      5983
      5974      5975      5977      5978      5974      5975      5977      5979
      5974      5975      5977      5989      5975      5974      5972      5980
      5975      5977      5989      5990      5975      5977      5989      5991
      5975      5977      5989      5992      5976      5975      5977      5978
      5976      5975      5977      5979      5976      5975      5977      5989
      5977      5989      5992      5993      5977      5989      5992      5994
      5977      5989      5992      5995      5978      5977      5989      5990
      5978      5977      5989      5991      5978      5977      5989      5992
      5979      5977      5989      5990      5979      5977      5989      5991
      5979      5977      5989      5992      5980      5983      5984      5985
      5980      5983      5984      5986      5981      5980      5983      5984
      5982      5980      5983      5984      5983      5984      5986      5987
      5983      5984      5986      5988      5983      5984      5986      6036
      5984      5986      6036      6037      5984      5986      6036      6038
      5984      5986      6036      6039      5985      5984      5986      5987
      5985      5984      5986      5988      5985      5984      5986      6036
      5986      6036      6039      6040      5986      6036      6039      6041
      5986      6036      6039      6042      5987      5986      6036      6037
      5987      5986      6036      6038      5987      5986      6036      6039
      5988      5986      6036      6037      5988      5986      6036      6038
      5988      5986      6036      6039      5989      5992      5995      5996
      5989      5992      5995      5997      5990      5989      5992      5993
      5990      5989      5992      5994      5990      5989      5992      5995
      5991      5989      5992      5993      5991      5989      5992      5994
      5991      5989      5992      5995      5992      5995      5997      5998
      5992      5995      5997      5999      5993      5992      5995      5996
      5993      5992      5995      5997      5994      5992      5995      5996
      5994      5992      5995      5997      5995      5997      5999      6000
      5995      5997      5999      6001      5995      5997      5999      6002
      5996      5995      5997      5998      5996      5995      5997      5999
      5997      5999      6002      6003      5997      5999      6002      6004
      5998      5997      5999      6000      5998      5997      5999      6001
      5998      5997      5999      6002      5999      6002      6004      6005
      5999      6002      6004      6006      6000      5999      6002      6003
      6000      5999      6002      6004      6001      5999      6002      6003
      6001      5999      6002      6004      6002      6004      6006      6007
      6002      6004      6006      6008      6002      6004      6006      6009
      6003      6002      6004      6005      6003      6002      6004      6006
      6004      6006      6009      6010      6004      6006      6009      6011
      6005      6004      6006      6007      6005      6004      6006      6008
      6005      6004      6006      6009      6006      6009      6011      6012
      6006      6009      6011      6013      6007      6006      6009      6010
      6007      6006      6009      6011      6008      6006      6009      6010
      6008      6006      6009      6011      6009      6011      6013      6014
      6009      6011      6013      6015      6009      6011      6013      6016
      6010      6009      6011      6012      6010      6009      6011      6013
      6011      6013      6016      6017      6011      6013      6016      6018
      6012      6011      6013      6014      6012      6011      6013      6015
      6012      6011      6013      6016      6013      6016      6018      6019
      6013      6016      6018      6020      6014      6013      6016      6017
      6014      6013      6016      6018      6015      6013      6016      6017
      6015      6013      6016      6018      6016      6018      6020      6021
      6016      6018      6020      6022      6016      6018      6020      6023
      6017      6016      6018      6019      6017      6016      6018      6020
      6018      6020      6023      6024      6018      6020      6023      6025
      6018      6020      6023      6026      6019      6018      6020      6021
      6019      6018      6020      6022      6019      6018      6020      6023
      6020      6023      6026      6027      6020      6023      6026      6028
      6020      6023      6026      6029      6021      6020      6023      6024
      6021      6020      6023      6025      6021      6020      6023      6026
      6022      6020      6023      6024      6022      6020      6023      6025
      6022      6020      6023      6026      6023      6026      6029      6030
      6023      6026      6029      6031      6023      6026      6029      6032
      6024      6023      6026      6027      6024      6023      6026      6028
      6024      6023      6026      6029      6025      6023      6026      6027
      6025      6023      6026      6028      6025      6023      6026      6029
      6026      6029      6032      6033      6026      6029      6032      6034
      6026      6029      6032      6035      6027      6026      6029      6030
      6027      6026      6029      6031      6027      6026      6029      6032
      6028      6026      6029      6030      6028      6026      6029      6031
      6028      6026      6029      6032      6030      6029      6032      6033
      6030      6029      6032      6034      6030      6029      6032      6035
      6031      6029      6032      6033      6031      6029      6032      6034
      6031      6029      6032      6035      6036      6039      6042      6043
      6036      6039      6042      6044      6036      6039      6042      6045
      6037      6036      6039      6040      6037      6036      6039      6041
      6037      6036      6039      6042      6038      6036      6039      6040
      6038      6036      6039      6041      6038      6036      6039      6042
      6039      6042      6045      6046      6039      6042      6045      6047
      6039      6042      6045      6048      6040      6039      6042      6043
      6040      6039      6042      6044      6040      6039      6042      6045
      6041      6039      6042      6043      6041      6039      6042      6044
      6041      6039      6042      6045      6042      6045      6048      6049
      6042      6045      6048      6050      6042      6045      6048      6051
      6043      6042      6045      6046      6043      6042      6045      6047
      6043      6042      6045      6048      6044      6042      6045      6046
      6044      6042      6045      6047      6044      6042      6045      6048
      6045      6048      6051      6052      6045      6048      6051      6053
      6045      6048      6051      6054      6046      6045      6048      6049
      6046      6045      6048      6050      6046      6045      6048      6051
      6047      6045      6048      6049      6047      6045      6048      6050
      6047      6045      6048      6051      6048      6051      6054      6055
      6048      6051      6054      6056      6048      6051      6054      6057
      6049      6048      6051      6052      6049      6048      6051      6053
      6049      6048      6051      6054      6050      6048      6051      6052
      6050      6048      6051      6053      6050      6048      6051      6054
      6051      6054      6057      6058      6051      6054      6057      6059
      6051      6054      6057      6060      6052      6051      6054      6055
      6052      6051      6054      6056      6052      6051      6054      6057
      6053      6051      6054      6055      6053      6051      6054      6056
      6053      6051      6054      6057      6054      6057      6060      6061
      6054      6057      6060      6062      6054      6057      6060      6063
      6055      6054      6057      6058      6055      6054      6057      6059
      6055      6054      6057      6060      6056      6054      6057      6058
      6056      6054      6057      6059      6056      6054      6057      6060
      6057      6060      6063      6064      6057      6060      6063      6065
      6057      6060      6063      6066      6058      6057      6060      6061
      6058      6057      6060      6062      6058      6057      6060      6063
      6059      6057      6060      6061      6059      6057      6060      6062
      6059      6057      6060      6063      6060      6063      6066      6067
      6060      6063      6066      6068      6060      6063      6066      6069
      6061      6060      6063      6064      6061      6060      6063      6065
      6061      6060      6063      6066      6062      6060      6063      6064
      6062      6060      6063      6065      6062      6060      6063      6066
      6063      6066      6069      6070      6063      6066      6069      6071
      6063      6066      6069      6072      6064      6063      6066      6067
      6064      6063      6066      6068      6064      6063      6066      6069
      6065      6063      6066      6067      6065      6063      6066      6068
      6065      6063      6066      6069      6066      6069      6072      6073
      6066      6069      6072      6074      6066      6069      6072      6075
      6067      6066      6069      6070      6067      6066      6069      6071
      6067      6066      6069      6072      6068      6066      6069      6070
      6068      6066      6069      6071      6068      6066      6069      6072
      6069      6072      6075      6076      6069      6072      6075      6077
      6069      6072      6075      6078      6070      6069      6072      6073
      6070      6069      6072      6074      6070      6069      6072      6075
      6071      6069      6072      6073      6071      6069      6072      6074
      6071      6069      6072      6075      6072      6075      6078      6079
      6072      6075      6078      6080      6072      6075      6078      6081
      6073      6072      6075      6076      6073      6072      6075      6077
      6073      6072      6075      6078      6074      6072      6075      6076
      6074      6072      6075      6077      6074      6072      6075      6078
      6075      6078      6081      6082      6075      6078      6081      6083
      6075      6078      6081      6084      6076      6075      6078      6079
      6076      6075      6078      6080      6076      6075      6078      6081
      6077      6075      6078      6079      6077      6075      6078      6080
      6077      6075      6078      6081      6079      6078      6081      6082
      6079      6078      6081      6083      6079      6078      6081      6084
      6080      6078      6081      6082      6080      6078      6081      6083
      6080      6078      6081      6084      6085      6098      6101      6102
      6085      6098      6101      6103      6085      6098      6101      6108
      6086      6085      6090      6091      6086      6085      6090      6092
      6086      6085      6090      6093      6086      6085      6094      6095
      6086      6085      6094      6096      6086      6085      6094      6097
      6086      6085      6098      6099      6086      6085      6098      6100
      6086      6085      6098      6101      6087      6086      6085      6090
      6087      6086      6085      6094      6087      6086      6085      6098
      6088      6086      6085      6090      6088      6086      6085      6094
      6088      6086      6085      6098      6089      6086      6085      6090
      6089      6086      6085      6094      6089      6086      6085      6098
      6090      6085      6094      6095      6090      6085      6094      6096
      6090      6085      6094      6097      6090      6085      6098      6099
      6090      6085      6098      6100      6090      6085      6098      6101
      6091      6090      6085      6094      6091      6090      6085      6098
      6092      6090      6085      6094      6092      6090      6085      6098
      6093      6090      6085      6094      6093      6090      6085      6098
      6094      6085      6098      6099      6094      6085      6098      6100
      6094      6085      6098      6101      6095      6094      6085      6098
      6096      6094      6085      6098      6097      6094      6085      6098
      6098      6101      6108      6104      6099      6098      6101      6102
      6099      6098      6101      6103      6099      6098      6101      6108
      6100      6098      6101      6102      6100      6098      6101      6103
      6100      6098      6101      6108      6101      6108      6104      6105
      6101      6108      6104      6106      6101      6108      6104      6107
      6102      6101      6108      6104      6103      6101      6108      6104
      6104      6107      6109      6110      6104      6107      6109      6111
      6104      6107      6109      6114      6105      6104      6107      6109
      6106      6104      6107      6109      6107      6109      6114      6112
      6107      6109      6114      6115      6107      6109      6114      6116
      6108      6104      6107      6109      6109      6114      6112      6113
      6109      6114      6112      6164      6109      6114      6116      6117
      6109      6114      6116      6118      6109      6114      6116      6120
      6110      6109      6114      6112      6110      6109      6114      6115
      6110      6109      6114      6116      6111      6109      6114      6112
      6111      6109      6114      6115      6111      6109      6114      6116
      6112      6114      6116      6117      6112      6114      6116      6118
      6112      6114      6116      6120      6112      6164      6166      6167
      6112      6164      6166      6168      6112      6164      6166      6169
      6113      6112      6114      6115      6113      6112      6114      6116
      6113      6112      6164      6165      6113      6112      6164      6166
      6114      6112      6164      6165      6114      6112      6164      6166
      6114      6116      6118      6119      6114      6116      6120      6121
      6114      6116      6120      6122      6115      6114      6112      6164
      6115      6114      6116      6117      6115      6114      6116      6118
      6115      6114      6116      6120      6116      6114      6112      6164
      6116      6120      6122      6123      6116      6120      6122      6124
      6117      6116      6118      6119      6117      6116      6120      6121
      6117      6116      6120      6122      6118      6116      6120      6121
      6118      6116      6120      6122      6119      6118      6116      6120
      6120      6122      6124      6125      6120      6122      6124      6126
      6120      6122      6124      6127      6121      6120      6122      6123
      6121      6120      6122      6124      6122      6124      6127      6128
      6122      6124      6127      6129      6122      6124      6127      6130
      6123      6122      6124      6125      6123      6122      6124      6126
      6123      6122      6124      6127      6124      6127      6130      6131
      6124      6127      6130      6132      6124      6127      6130      6133
      6125      6124      6127      6128      6125      6124      6127      6129
      6125      6124      6127      6130      6126      6124      6127      6128
      6126      6124      6127      6129      6126      6124      6127      6130
      6127      6130      6133      6134      6127      6130      6133      6135
      6127      6130      6133      6136      6128      6127      6130      6131
      6128      6127      6130      6132      6128      6127      6130      6133
      6129      6127      6130      6131      6129      6127      6130      6132
      6129      6127      6130      6133      6130      6133      6136      6137
      6130      6133      6136      6138      6130      6133      6136      6139
      6131      6130      6133      6134      6131      6130      6133      6135
      6131      6130      6133      6136      6132      6130      6133      6134
      6132      6130      6133      6135      6132      6130      6133      6136
      6133      6136      6139      6140      6133      6136      6139      6141
      6133      6136      6139      6142      6134      6133      6136      6137
      6134      6133      6136      6138      6134      6133      6136      6139
      6135      6133      6136      6137      6135      6133      6136      6138
      6135      6133      6136      6139      6136      6139      6142      6143
      6136      6139      6142      6144      6136      6139      6142      6145
      6137      6136      6139      6140      6137      6136      6139      6141
      6137      6136      6139      6142      6138      6136      6139      6140
      6138      6136      6139      6141      6138      6136      6139      6142
      6139      6142      6145      6146      6139      6142      6145      6147
      6139      6142      6145      6148      6140      6139      6142      6143
      6140      6139      6142      6144      6140      6139      6142      6145
      6141      6139      6142      6143      6141      6139      6142      6144
      6141      6139      6142      6145      6142      6145      6148      6149
      6142      6145      6148      6150      6142      6145      6148      6151
      6143      6142      6145      6146      6143      6142      6145      6147
      6143      6142      6145      6148      6144      6142      6145      6146
      6144      6142      6145      6147      6144      6142      6145      6148
      6145      6148      6151      6152      6145      6148      6151      6153
      6145      6148      6151      6154      6146      6145      6148      6149
      6146      6145      6148      6150      6146      6145      6148      6151
      6147      6145      6148      6149      6147      6145      6148      6150
      6147      6145      6148      6151      6148      6151      6154      6155
      6148      6151      6154      6156      6148      6151      6154      6157
      6149      6148      6151      6152      6149      6148      6151      6153
      6149      6148      6151      6154      6150      6148      6151      6152
      6150      6148      6151      6153      6150      6148      6151      6154
      6151      6154      6157      6158      6151      6154      6157      6159
      6151      6154      6157      6160      6152      6151      6154      6155
      6152      6151      6154      6156      6152      6151      6154      6157
      6153      6151      6154      6155      6153      6151      6154      6156
      6153      6151      6154      6157      6154      6157      6160      6161
      6154      6157      6160      6162      6154      6157      6160      6163
      6155      6154      6157      6158      6155      6154      6157      6159
      6155      6154      6157      6160      6156      6154      6157      6158
      6156      6154      6157      6159      6156      6154      6157      6160
      6158      6157      6160      6161      6158      6157      6160      6162
      6158      6157      6160      6163      6159      6157      6160      6161
      6159      6157      6160      6162      6159      6157      6160      6163
      6164      6166      6169      6170      6164      6166      6169      6171
      6164      6166      6169      6172      6165      6164      6166      6167
      6165      6164      6166      6168      6165      6164      6166      6169
      6166      6169      6172      6173      6166      6169      6172      6174
      6166      6169      6172      6175      6167      6166      6169      6170
      6167      6166      6169      6171      6167      6166      6169      6172
      6168      6166      6169      6170      6168      6166      6169      6171
      6168      6166      6169      6172      6169      6172      6175      6176
      6169      6172      6175      6177      6169      6172      6175      6178
      6170      6169      6172      6173      6170      6169      6172      6174
      6170      6169      6172      6175      6171      6169      6172      6173
      6171      6169      6172      6174      6171      6169      6172      6175
      6172      6175      6178      6179      6172      6175      6178      6180
      6172      6175      6178      6181      6173      6172      6175      6176
      6173      6172      6175      6177      6173      6172      6175      6178
      6174      6172      6175      6176      6174      6172      6175      6177
      6174      6172      6175      6178      6175      6178      6181      6182
      6175      6178      6181      6183      6175      6178      6181      6184
      6176      6175      6178      6179      6176      6175      6178      6180
      6176      6175      6178      6181      6177      6175      6178      6179
      6177      6175      6178      6180      6177      6175      6178      6181
      6178      6181      6184      6185      6178      6181      6184      6186
      6178      6181      6184      6187      6179      6178      6181      6182
      6179      6178      6181      6183      6179      6178      6181      6184
      6180      6178      6181      6182      6180      6178      6181      6183
      6180      6178      6181      6184      6181      6184      6187      6188
      6181      6184      6187      6189      6182      6181      6184      6185
      6182      6181      6184      6186      6182      6181      6184      6187
      6183      6181      6184      6185      6183      6181      6184      6186
      6183      6181      6184      6187      6184      6187      6189      6190
      6184      6187      6189      6191      6185      6184      6187      6188
      6185      6184      6187      6189      6186      6184      6187      6188
      6186      6184      6187      6189      6187      6189      6191      6192
      6187      6189      6191      6193      6187      6189      6191      6194
      6188      6187      6189      6190      6188      6187      6189      6191
      6189      6191      6194      6195      6189      6191      6194      6196
      6189      6191      6194      6197      6190      6189      6191      6192
      6190      6189      6191      6193      6190      6189      6191      6194
      6191      6194      6197      6198      6191      6194      6197      6199
      6191      6194      6197      6200      6192      6191      6194      6195
      6192      6191      6194      6196      6192      6191      6194      6197
      6193      6191      6194      6195      6193      6191      6194      6196
      6193      6191      6194      6197      6194      6197      6200      6201
      6194      6197      6200      6202      6194      6197      6200      6203
      6195      6194      6197      6198      6195      6194      6197      6199
      6195      6194      6197      6200      6196      6194      6197      6198
      6196      6194      6197      6199      6196      6194      6197      6200
      6197      6200      6203      6204      6197      6200      6203      6205
      6197      6200      6203      6206      6198      6197      6200      6201
      6198      6197      6200      6202      6198      6197      6200      6203
      6199      6197      6200      6201      6199      6197      6200      6202
      6199      6197      6200      6203      6200      6203      6206      6207
      6200      6203      6206      6208      6200      6203      6206      6209
      6201      6200      6203      6204      6201      6200      6203      6205
      6201      6200      6203      6206      6202      6200      6203      6204
      6202      6200      6203      6205      6202      6200      6203      6206
      6203      6206      6209      6210      6203      6206      6209      6211
      6203      6206      6209      6212      6204      6203      6206      6207
      6204      6203      6206      6208      6204      6203      6206      6209
      6205      6203      6206      6207      6205      6203      6206      6208
      6205      6203      6206      6209      6206      6209      6212      6213
      6206      6209      6212      6214      6206      6209      6212      6215
      6207      6206      6209      6210      6207      6206      6209      6211
      6207      6206      6209      6212      6208      6206      6209      6210
      6208      6206      6209      6211      6208      6206      6209      6212
      6210      6209      6212      6213      6210      6209      6212      6214
      6210      6209      6212      6215      6211      6209      6212      6213
      6211      6209      6212      6214      6211      6209      6212      6215
      6216      6220      6223      6224      6216      6220      6223      6225
      6216      6220      6223      6229      6217      6216      6220      6221
      6217      6216      6220      6222      6217      6216      6220      6223
      6218      6216      6220      6221      6218      6216      6220      6222
      6218      6216      6220      6223      6219      6216      6220      6221
      6219      6216      6220      6222      6219      6216      6220      6223
      6220      6223      6229      6226      6221      6220      6223      6224
      6221      6220      6223      6225      6221      6220      6223      6229
      6222      6220      6223      6224      6222      6220      6223      6225
      6222      6220      6223      6229      6223      6229      6226      6227
      6223      6229      6226      6228      6223      6229      6226      6230
      6224      6223      6229      6226      6225      6223      6229      6226
      6226      6230      6231      6232      6226      6230      6231      6233
      6226      6230      6231      6234      6227      6226      6230      6231
      6228      6226      6230      6231      6229      6226      6230      6231
      6230      6231      6234      6235      6230      6231      6234      6236
      6230      6231      6234      6242      6231      6234      6236      6237
      6231      6234      6242      6243      6231      6234      6242      6244
      6231      6234      6242      6245      6232      6231      6234      6235
      6232      6231      6234      6236      6232      6231      6234      6242
      6233      6231      6234      6235      6233      6231      6234      6236
      6233      6231      6234      6242      6234      6236      6237      6238
      6234      6236      6237      6239      6234      6242      6245      6246
      6235      6234      6236      6237      6235      6234      6242      6243
      6235      6234      6242      6244      6235      6234      6242      6245
      6236      6234      6242      6243      6236      6234      6242      6244
      6236      6234      6242      6245      6236      6237      6239      6240
      6236      6237      6239      6241      6236      6237      6239      6251
      6237      6236      6234      6242      6237      6239      6251      6252
      6237      6239      6251      6253      6237      6239      6251      6254
      6238      6237      6239      6240      6238      6237      6239      6241
      6238      6237      6239      6251      6239      6251      6254      6255
      6239      6251      6254      6256      6239      6251      6254      6257
      6240      6239      6251      6252      6240      6239      6251      6253
      6240      6239      6251      6254      6241      6239      6251      6252
      6241      6239      6251      6253      6241      6239      6251      6254
      6242      6245      6246      6247      6242      6245      6246      6248
      6243      6242      6245      6246      6244      6242      6245      6246
      6245      6246      6248      6249      6245      6246      6248      6250
      6245      6246      6248      6298      6246      6248      6298      6299
      6246      6248      6298      6300      6246      6248      6298      6301
      6247      6246      6248      6249      6247      6246      6248      6250
      6247      6246      6248      6298      6248      6298      6301      6302
      6248      6298      6301      6303      6248      6298      6301      6304
      6249      6248      6298      6299      6249      6248      6298      6300
      6249      6248      6298      6301      6250      6248      6298      6299
      6250      6248      6298      6300      6250      6248      6298      6301
      6251      6254      6257      6258      6251      6254      6257      6259
      6252      6251      6254      6255      6252      6251      6254      6256
      6252      6251      6254      6257      6253      6251      6254      6255
      6253      6251      6254      6256      6253      6251      6254      6257
      6254      6257      6259      6260      6254      6257      6259      6261
      6255      6254      6257      6258      6255      6254      6257      6259
      6256      6254      6257      6258      6256      6254      6257      6259
      6257      6259      6261      6262      6257      6259      6261      6263
      6257      6259      6261      6264      6258      6257      6259      6260
      6258      6257      6259      6261      6259      6261      6264      6265
      6259      6261      6264      6266      6260      6259      6261      6262
      6260      6259      6261      6263      6260      6259      6261      6264
      6261      6264      6266      6267      6261      6264      6266      6268
      6262      6261      6264      6265      6262      6261      6264      6266
      6263      6261      6264      6265      6263      6261      6264      6266
      6264      6266      6268      6269      6264      6266      6268      6270
      6264      6266      6268      6271      6265      6264      6266      6267
      6265      6264      6266      6268      6266      6268      6271      6272
      6266      6268      6271      6273      6267      6266      6268      6269
      6267      6266      6268      6270      6267      6266      6268      6271
      6268      6271      6273      6274      6268      6271      6273      6275
      6269      6268      6271      6272      6269      6268      6271      6273
      6270      6268      6271      6272      6270      6268      6271      6273
      6271      6273      6275      6276      6271      6273      6275      6277
      6271      6273      6275      6278      6272      6271      6273      6274
      6272      6271      6273      6275      6273      6275      6278      6279
      6273      6275      6278      6280      6274      6273      6275      6276
      6274      6273      6275      6277      6274      6273      6275      6278
      6275      6278      6280      6281      6275      6278      6280      6282
      6276      6275      6278      6279      6276      6275      6278      6280
      6277      6275      6278      6279      6277      6275      6278      6280
      6278      6280      6282      6283      6278      6280      6282      6284
      6278      6280      6282      6285      6279      6278      6280      6281
      6279      6278      6280      6282      6280      6282      6285      6286
      6280      6282      6285      6287      6280      6282      6285      6288
      6281      6280      6282      6283      6281      6280      6282      6284
      6281      6280      6282      6285      6282      6285      6288      6289
      6282      6285      6288      6290      6282      6285      6288      6291
      6283      6282      6285      6286      6283      6282      6285      6287
      6283      6282      6285      6288      6284      6282      6285      6286
      6284      6282      6285      6287      6284      6282      6285      6288
      6285      6288      6291      6292      6285      6288      6291      6293
      6285      6288      6291      6294      6286      6285      6288      6289
      6286      6285      6288      6290      6286      6285      6288      6291
      6287      6285      6288      6289      6287      6285      6288      6290
      6287      6285      6288      6291      6288      6291      6294      6295
      6288      6291      6294      6296      6288      6291      6294      6297
      6289      6288      6291      6292      6289      6288      6291      6293
      6289      6288      6291      6294      6290      6288      6291      6292
      6290      6288      6291      6293      6290      6288      6291      6294
      6292      6291      6294      6295      6292      6291      6294      6296
      6292      6291      6294      6297      6293      6291      6294      6295
      6293      6291      6294      6296      6293      6291      6294      6297
      6298      6301      6304      6305      6298      6301      6304      6306
      6298      6301      6304      6307      6299      6298      6301      6302
      6299      6298      6301      6303      6299      6298      6301      6304
      6300      6298      6301      6302      6300      6298      6301      6303
      6300      6298      6301      6304      6301      6304      6307      6308
      6301      6304      6307      6309      6301      6304      6307      6310
      6302      6301      6304      6305      6302      6301      6304      6306
      6302      6301      6304      6307      6303      6301      6304      6305
      6303      6301      6304      6306      6303      6301      6304      6307
      6304      6307      6310      6311      6304      6307      6310      6312
      6304      6307      6310      6313      6305      6304      6307      6308
      6305      6304      6307      6309      6305      6304      6307      6310
      6306      6304      6307      6308      6306      6304      6307      6309
      6306      6304      6307      6310      6307      6310      6313      6314
      6307      6310      6313      6315      6307      6310      6313      6316
      6308      6307      6310      6311      6308      6307      6310      6312
      6308      6307      6310      6313      6309      6307      6310      6311
      6309      6307      6310      6312      6309      6307      6310      6313
      6310      6313      6316      6317      6310      6313      6316      6318
      6310      6313      6316      6319      6311      6310      6313      6314
      6311      6310      6313      6315      6311      6310      6313      6316
      6312      6310      6313      6314      6312      6310      6313      6315
      6312      6310      6313      6316      6313      6316      6319      6320
      6313      6316      6319      6321      6313      6316      6319      6322
      6314      6313      6316      6317      6314      6313      6316      6318
      6314      6313      6316      6319      6315      6313      6316      6317
      6315      6313      6316      6318      6315      6313      6316      6319
      6316      6319      6322      6323      6316      6319      6322      6324
      6316      6319      6322      6325      6317      6316      6319      6320
      6317      6316      6319      6321      6317      6316      6319      6322
      6318      6316      6319      6320      6318      6316      6319      6321
      6318      6316      6319      6322      6319      6322      6325      6326
      6319      6322      6325      6327      6319      6322      6325      6328
      6320      6319      6322      6323      6320      6319      6322      6324
      6320      6319      6322      6325      6321      6319      6322      6323
      6321      6319      6322      6324      6321      6319      6322      6325
      6322      6325      6328      6329      6322      6325      6328      6330
      6322      6325      6328      6331      6323      6322      6325      6326
      6323      6322      6325      6327      6323      6322      6325      6328
      6324      6322      6325      6326      6324      6322      6325      6327
      6324      6322      6325      6328      6325      6328      6331      6332
      6325      6328      6331      6333      6325      6328      6331      6334
      6326      6325      6328      6329      6326      6325      6328      6330
      6326      6325      6328      6331      6327      6325      6328      6329
      6327      6325      6328      6330      6327      6325      6328      6331
      6328      6331      6334      6335      6328      6331      6334      6336
      6328      6331      6334      6337      6329      6328      6331      6332
      6329      6328      6331      6333      6329      6328      6331      6334
      6330      6328      6331      6332      6330      6328      6331      6333
      6330      6328      6331      6334      6331      6334      6337      6338
      6331      6334      6337      6339      6331      6334      6337      6340
      6332      6331      6334      6335      6332      6331      6334      6336
      6332      6331      6334      6337      6333      6331      6334      6335
      6333      6331      6334      6336      6333      6331      6334      6337
      6334      6337      6340      6341      6334      6337      6340      6342
      6334      6337      6340      6343      6335      6334      6337      6338
      6335      6334      6337      6339      6335      6334      6337      6340
      6336      6334      6337      6338      6336      6334      6337      6339
      6336      6334      6337      6340      6337      6340      6343      6344
      6337      6340      6343      6345      6337      6340      6343      6346
      6338      6337      6340      6341      6338      6337      6340      6342
      6338      6337      6340      6343      6339      6337      6340      6341
      6339      6337      6340      6342      6339      6337      6340      6343
      6341      6340      6343      6344      6341      6340      6343      6345
      6341      6340      6343      6346      6342      6340      6343      6344
      6342      6340      6343      6345      6342      6340      6343      6346
      6347      6360      6363      6364      6347      6360      6363      6365
      6347      6360      6363      6370      6348      6347      6352      6353
      6348      6347      6352      6354      6348      6347      6352      6355
      6348      6347      6356      6357      6348      6347      6356      6358
      6348      6347      6356      6359      6348      6347      6360      6361
      6348      6347      6360      6362      6348      6347      6360      6363
      6349      6348      6347      6352      6349      6348      6347      6356
      6349      6348      6347      6360      6350      6348      6347      6352
      6350      6348      6347      6356      6350      6348      6347      6360
      6351      6348      6347      6352      6351      6348      6347      6356
      6351      6348      6347      6360      6352      6347      6356      6357
      6352      6347      6356      6358      6352      6347      6356      6359
      6352      6347      6360      6361      6352      6347      6360      6362
      6352      6347      6360      6363      6353      6352      6347      6356
      6353      6352      6347      6360      6354      6352      6347      6356
      6354      6352      6347      6360      6355      6352      6347      6356
      6355      6352      6347      6360      6356      6347      6360      6361
      6356      6347      6360      6362      6356      6347      6360      6363
      6357      6356      6347      6360      6358      6356      6347      6360
      6359      6356      6347      6360      6360      6363      6370      6366
      6361      6360      6363      6364      6361      6360      6363      6365
      6361      6360      6363      6370      6362      6360      6363      6364
      6362      6360      6363      6365      6362      6360      6363      6370
      6363      6370      6366      6367      6363      6370      6366      6368
      6363      6370      6366      6369      6364      6363      6370      6366
      6365      6363      6370      6366      6366      6369      6371      6372
      6366      6369      6371      6373      6366      6369      6371      6376
      6367      6366      6369      6371      6368      6366      6369      6371
      6369      6371      6376      6374      6369      6371      6376      6377
      6369      6371      6376      6378      6370      6366      6369      6371
      6371      6376      6374      6375      6371      6376      6374      6426
      6371      6376      6378      6379      6371      6376      6378      6380
      6371      6376      6378      6382      6372      6371      6376      6374
      6372      6371      6376      6377      6372      6371      6376      6378
      6373      6371      6376      6374      6373      6371      6376      6377
      6373      6371      6376      6378      6374      6376      6378      6379
      6374      6376      6378      6380      6374      6376      6378      6382
      6374      6426      6428      6429      6374      6426      6428      6430
      6374      6426      6428      6431      6375      6374      6376      6377
      6375      6374      6376      6378      6375      6374      6426      6427
      6375      6374      6426      6428      6376      6374      6426      6427
      6376      6374      6426      6428      6376      6378      6380      6381
      6376      6378      6382      6383      6376      6378      6382      6384
      6377      6376      6374      6426      6377      6376      6378      6379
      6377      6376      6378      6380      6377      6376      6378      6382
      6378      6376      6374      6426      6378      6382      6384      6385
      6378      6382      6384      6386      6379      6378      6380      6381
      6379      6378      6382      6383      6379      6378      6382      6384
      6380      6378      6382      6383      6380      6378      6382      6384
      6381      6380      6378      6382      6382      6384      6386      6387
      6382      6384      6386      6388      6382      6384      6386      6389
      6383      6382      6384      6385      6383      6382      6384      6386
      6384      6386      6389      6390      6384      6386      6389      6391
      6384      6386      6389      6392      6385      6384      6386      6387
      6385      6384      6386      6388      6385      6384      6386      6389
      6386      6389      6392      6393      6386      6389      6392      6394
      6386      6389      6392      6395      6387      6386      6389      6390
      6387      6386      6389      6391      6387      6386      6389      6392
      6388      6386      6389      6390      6388      6386      6389      6391
      6388      6386      6389      6392      6389      6392      6395      6396
      6389      6392      6395      6397      6389      6392      6395      6398
      6390      6389      6392      6393      6390      6389      6392      6394
      6390      6389      6392      6395      6391      6389      6392      6393
      6391      6389      6392      6394      6391      6389      6392      6395
      6392      6395      6398      6399      6392      6395      6398      6400
      6392      6395      6398      6401      6393      6392      6395      6396
      6393      6392      6395      6397      6393      6392      6395      6398
      6394      6392      6395      6396      6394      6392      6395      6397
      6394      6392      6395      6398      6395      6398      6401      6402
      6395      6398      6401      6403      6395      6398      6401      6404
      6396      6395      6398      6399      6396      6395      6398      6400
      6396      6395      6398      6401      6397      6395      6398      6399
      6397      6395      6398      6400      6397      6395      6398      6401
      6398      6401      6404      6405      6398      6401      6404      6406
      6398      6401      6404      6407      6399      6398      6401      6402
      6399      6398      6401      6403      6399      6398      6401      6404
      6400      6398      6401      6402      6400      6398      6401      6403
      6400      6398      6401      6404      6401      6404      6407      6408
      6401      6404      6407      6409      6401      6404      6407      6410
      6402      6401      6404      6405      6402      6401      6404      6406
      6402      6401      6404      6407      6403      6401      6404      6405
      6403      6401      6404      6406      6403      6401      6404      6407
      6404      6407      6410      6411      6404      6407      6410      6412
      6404      6407      6410      6413      6405      6404      6407      6408
      6405      6404      6407      6409      6405      6404      6407      6410
      6406      6404      6407      6408      6406      6404      6407      6409
      6406      6404      6407      6410      6407      6410      6413      6414
      6407      6410      6413      6415      6407      6410      6413      6416
      6408      6407      6410      6411      6408      6407      6410      6412
      6408      6407      6410      6413      6409      6407      6410      6411
      6409      6407      6410      6412      6409      6407      6410      6413
      6410      6413      6416      6417      6410      6413      6416      6418
      6410      6413      6416      6419      6411      6410      6413      6414
      6411      6410      6413      6415      6411      6410      6413      6416
      6412      6410      6413      6414      6412      6410      6413      6415
      6412      6410      6413      6416      6413      6416      6419      6420
      6413      6416      6419      6421      6413      6416      6419      6422
      6414      6413      6416      6417      6414      6413      6416      6418
      6414      6413      6416      6419      6415      6413      6416      6417
      6415      6413      6416      6418      6415      6413      6416      6419
      6416      6419      6422      6423      6416      6419      6422      6424
      6416      6419      6422      6425      6417      6416      6419      6420
      6417      6416      6419      6421      6417      6416      6419      6422
      6418      6416      6419      6420      6418      6416      6419      6421
      6418      6416      6419      6422      6420      6419      6422      6423
      6420      6419      6422      6424      6420      6419      6422      6425
      6421      6419      6422      6423      6421      6419      6422      6424
      6421      6419      6422      6425      6426      6428      6431      6432
      6426      6428      6431      6433      6426      6428      6431      6434
      6427      6426      6428      6429      6427      6426      6428      6430
      6427      6426      6428      6431      6428      6431      6434      6435
      6428      6431      6434      6436      6428      6431      6434      6437
      6429      6428      6431      6432      6429      6428      6431      6433
      6429      6428      6431      6434      6430      6428      6431      6432
      6430      6428      6431      6433      6430      6428      6431      6434
      6431      6434      6437      6438      6431      6434      6437      6439
      6431      6434      6437      6440      6432      6431      6434      6435
      6432      6431      6434      6436      6432      6431      6434      6437
      6433      6431      6434      6435      6433      6431      6434      6436
      6433      6431      6434      6437      6434      6437      6440      6441
      6434      6437      6440      6442      6434      6437      6440      6443
      6435      6434      6437      6438      6435      6434      6437      6439
      6435      6434      6437      6440      6436      6434      6437      6438
      6436      6434      6437      6439      6436      6434      6437      6440
      6437      6440      6443      6444      6437      6440      6443      6445
      6437      6440      6443      6446      6438      6437      6440      6441
      6438      6437      6440      6442      6438      6437      6440      6443
      6439      6437      6440      6441      6439      6437      6440      6442
      6439      6437      6440      6443      6440      6443      6446      6447
      6440      6443      6446      6448      6440      6443      6446      6449
      6441      6440      6443      6444      6441      6440      6443      6445
      6441      6440      6443      6446      6442      6440      6443      6444
      6442      6440      6443      6445      6442      6440      6443      6446
      6443      6446      6449      6450      6443      6446      6449      6451
      6444      6443      6446      6447      6444      6443      6446      6448
      6444      6443      6446      6449      6445      6443      6446      6447
      6445      6443      6446      6448      6445      6443      6446      6449
      6446      6449      6451      6452      6446      6449      6451      6453
      6447      6446      6449      6450      6447      6446      6449      6451
      6448      6446      6449      6450      6448      6446      6449      6451
      6449      6451      6453      6454      6449      6451      6453      6455
      6449      6451      6453      6456      6450      6449      6451      6452
      6450      6449      6451      6453      6451      6453      6456      6457
      6451      6453      6456      6458      6451      6453      6456      6459
      6452      6451      6453      6454      6452      6451      6453      6455
      6452      6451      6453      6456      6453      6456      6459      6460
      6453      6456      6459      6461      6453      6456      6459      6462
      6454      6453      6456      6457      6454      6453      6456      6458
      6454      6453      6456      6459      6455      6453      6456      6457
      6455      6453      6456      6458      6455      6453      6456      6459
      6456      6459      6462      6463      6456      6459      6462      6464
      6456      6459      6462      6465      6457      6456      6459      6460
      6457      6456      6459      6461      6457      6456      6459      6462
      6458      6456      6459      6460      6458      6456      6459      6461
      6458      6456      6459      6462      6459      6462      6465      6466
      6459      6462      6465      6467      6459      6462      6465      6468
      6460      6459      6462      6463      6460      6459      6462      6464
      6460      6459      6462      6465      6461      6459      6462      6463
      6461      6459      6462      6464      6461      6459      6462      6465
      6462      6465      6468      6469      6462      6465      6468      6470
      6462      6465      6468      6471      6463      6462      6465      6466
      6463      6462      6465      6467      6463      6462      6465      6468
      6464      6462      6465      6466      6464      6462      6465      6467
      6464      6462      6465      6468      6465      6468      6471      6472
      6465      6468      6471      6473      6465      6468      6471      6474
      6466      6465      6468      6469      6466      6465      6468      6470
      6466      6465      6468      6471      6467      6465      6468      6469
      6467      6465      6468      6470      6467      6465      6468      6471
      6468      6471      6474      6475      6468      6471      6474      6476
      6468      6471      6474      6477      6469      6468      6471      6472
      6469      6468      6471      6473      6469      6468      6471      6474
      6470      6468      6471      6472      6470      6468      6471      6473
      6470      6468      6471      6474      6472      6471      6474      6475
      6472      6471      6474      6476      6472      6471      6474      6477
      6473      6471      6474      6475      6473      6471      6474      6476
      6473      6471      6474      6477      6478      6491      6494      6495
      6478      6491      6494      6496      6478      6491      6494      6501
      6479      6478      6483      6484      6479      6478      6483      6485
      6479      6478      6483      6486      6479      6478      6487      6488
      6479      6478      6487      6489      6479      6478      6487      6490
      6479      6478      6491      6492      6479      6478      6491      6493
      6479      6478      6491      6494      6480      6479      6478      6483
      6480      6479      6478      6487      6480      6479      6478      6491
      6481      6479      6478      6483      6481      6479      6478      6487
      6481      6479      6478      6491      6482      6479      6478      6483
      6482      6479      6478      6487      6482      6479      6478      6491
      6483      6478      6487      6488      6483      6478      6487      6489
      6483      6478      6487      6490      6483      6478      6491      6492
      6483      6478      6491      6493      6483      6478      6491      6494
      6484      6483      6478      6487      6484      6483      6478      6491
      6485      6483      6478      6487      6485      6483      6478      6491
      6486      6483      6478      6487      6486      6483      6478      6491
      6487      6478      6491      6492      6487      6478      6491      6493
      6487      6478      6491      6494      6488      6487      6478      6491
      6489      6487      6478      6491      6490      6487      6478      6491
      6491      6494      6501      6497      6492      6491      6494      6495
      6492      6491      6494      6496      6492      6491      6494      6501
      6493      6491      6494      6495      6493      6491      6494      6496
      6493      6491      6494      6501      6494      6501      6497      6498
      6494      6501      6497      6499      6494      6501      6497      6500
      6495      6494      6501      6497      6496      6494      6501      6497
      6497      6500      6502      6503      6497      6500      6502      6504
      6497      6500      6502      6507      6498      6497      6500      6502
      6499      6497      6500      6502      6500      6502      6507      6505
      6500      6502      6507      6508      6500      6502      6507      6509
      6501      6497      6500      6502      6502      6507      6505      6506
      6502      6507      6505      6557      6502      6507      6509      6510
      6502      6507      6509      6511      6502      6507      6509      6513
      6503      6502      6507      6505      6503      6502      6507      6508
      6503      6502      6507      6509      6504      6502      6507      6505
      6504      6502      6507      6508      6504      6502      6507      6509
      6505      6507      6509      6510      6505      6507      6509      6511
      6505      6507      6509      6513      6505      6557      6559      6560
      6505      6557      6559      6561      6505      6557      6559      6562
      6506      6505      6507      6508      6506      6505      6507      6509
      6506      6505      6557      6558      6506      6505      6557      6559
      6507      6505      6557      6558      6507      6505      6557      6559
      6507      6509      6511      6512      6507      6509      6513      6514
      6507      6509      6513      6515      6508      6507      6505      6557
      6508      6507      6509      6510      6508      6507      6509      6511
      6508      6507      6509      6513      6509      6507      6505      6557
      6509      6513      6515      6516      6509      6513      6515      6517
      6510      6509      6511      6512      6510      6509      6513      6514
      6510      6509      6513      6515      6511      6509      6513      6514
      6511      6509      6513      6515      6512      6511      6509      6513
      6513      6515      6517      6518      6513      6515      6517      6519
      6513      6515      6517      6520      6514      6513      6515      6516
      6514      6513      6515      6517      6515      6517      6520      6521
      6515      6517      6520      6522      6515      6517      6520      6523
      6516      6515      6517      6518      6516      6515      6517      6519
      6516      6515      6517      6520      6517      6520      6523      6524
      6517      6520      6523      6525      6517      6520      6523      6526
      6518      6517      6520      6521      6518      6517      6520      6522
      6518      6517      6520      6523      6519      6517      6520      6521
      6519      6517      6520      6522      6519      6517      6520      6523
      6520      6523      6526      6527      6520      6523      6526      6528
      6520      6523      6526      6529      6521      6520      6523      6524
      6521      6520      6523      6525      6521      6520      6523      6526
      6522      6520      6523      6524      6522      6520      6523      6525
      6522      6520      6523      6526      6523      6526      6529      6530
      6523      6526      6529      6531      6523      6526      6529      6532
      6524      6523      6526      6527      6524      6523      6526      6528
      6524      6523      6526      6529      6525      6523      6526      6527
      6525      6523      6526      6528      6525      6523      6526      6529
      6526      6529      6532      6533      6526      6529      6532      6534
      6526      6529      6532      6535      6527      6526      6529      6530
      6527      6526      6529      6531      6527      6526      6529      6532
      6528      6526      6529      6530      6528      6526      6529      6531
      6528      6526      6529      6532      6529      6532      6535      6536
      6529      6532      6535      6537      6529      6532      6535      6538
      6530      6529      6532      6533      6530      6529      6532      6534
      6530      6529      6532      6535      6531      6529      6532      6533
      6531      6529      6532      6534      6531      6529      6532      6535
      6532      6535      6538      6539      6532      6535      6538      6540
      6532      6535      6538      6541      6533      6532      6535      6536
      6533      6532      6535      6537      6533      6532      6535      6538
      6534      6532      6535      6536      6534      6532      6535      6537
      6534      6532      6535      6538      6535      6538      6541      6542
      6535      6538      6541      6543      6535      6538      6541      6544
      6536      6535      6538      6539      6536      6535      6538      6540
      6536      6535      6538      6541      6537      6535      6538      6539
      6537      6535      6538      6540      6537      6535      6538      6541
      6538      6541      6544      6545      6538      6541      6544      6546
      6538      6541      6544      6547      6539      6538      6541      6542
      6539      6538      6541      6543      6539      6538      6541      6544
      6540      6538      6541      6542      6540      6538      6541      6543
      6540      6538      6541      6544      6541      6544      6547      6548
      6541      6544      6547      6549      6541      6544      6547      6550
      6542      6541      6544      6545      6542      6541      6544      6546
      6542      6541      6544      6547      6543      6541      6544      6545
      6543      6541      6544      6546      6543      6541      6544      6547
      6544      6547      6550      6551      6544      6547      6550      6552
      6544      6547      6550      6553      6545      6544      6547      6548
      6545      6544      6547      6549      6545      6544      6547      6550
      6546      6544      6547      6548      6546      6544      6547      6549
      6546      6544      6547      6550      6547      6550      6553      6554
      6547      6550      6553      6555      6547      6550      6553      6556
      6548      6547      6550      6551      6548      6547      6550      6552
      6548      6547      6550      6553      6549      6547      6550      6551
      6549      6547      6550      6552      6549      6547      6550      6553
      6551      6550      6553      6554      6551      6550      6553      6555
      6551      6550      6553      6556      6552      6550      6553      6554
      6552      6550      6553      6555      6552      6550      6553      6556
      6557      6559      6562      6563      6557      6559      6562      6564
      6557      6559      6562      6565      6558      6557      6559      6560
      6558      6557      6559      6561      6558      6557      6559      6562
      6559      6562      6565      6566      6559      6562      6565      6567
      6559      6562      6565      6568      6560      6559      6562      6563
      6560      6559      6562      6564      6560      6559      6562      6565
      6561      6559      6562      6563      6561      6559      6562      6564
      6561      6559      6562      6565      6562      6565      6568      6569
      6562      6565      6568      6570      6562      6565      6568      6571
      6563      6562      6565      6566      6563      6562      6565      6567
      6563      6562      6565      6568      6564      6562      6565      6566
      6564      6562      6565      6567      6564      6562      6565      6568
      6565      6568      6571      6572      6565      6568      6571      6573
      6565      6568      6571      6574      6566      6565      6568      6569
      6566      6565      6568      6570      6566      6565      6568      6571
      6567      6565      6568      6569      6567      6565      6568      6570
      6567      6565      6568      6571      6568      6571      6574      6575
      6568      6571      6574      6576      6568      6571      6574      6577
      6569      6568      6571      6572      6569      6568      6571      6573
      6569      6568      6571      6574      6570      6568      6571      6572
      6570      6568      6571      6573      6570      6568      6571      6574
      6571      6574      6577      6578      6571      6574      6577      6579
      6571      6574      6577      6580      6572      6571      6574      6575
      6572      6571      6574      6576      6572      6571      6574      6577
      6573      6571      6574      6575      6573      6571      6574      6576
      6573      6571      6574      6577      6574      6577      6580      6581
      6574      6577      6580      6582      6575      6574      6577      6578
      6575      6574      6577      6579      6575      6574      6577      6580
      6576      6574      6577      6578      6576      6574      6577      6579
      6576      6574      6577      6580      6577      6580      6582      6583
      6577      6580      6582      6584      6578      6577      6580      6581
      6578      6577      6580      6582      6579      6577      6580      6581
      6579      6577      6580      6582      6580      6582      6584      6585
      6580      6582      6584      6586      6580      6582      6584      6587
      6581      6580      6582      6583      6581      6580      6582      6584
      6582      6584      6587      6588      6582      6584      6587      6589
      6582      6584      6587      6590      6583      6582      6584      6585
      6583      6582      6584      6586      6583      6582      6584      6587
      6584      6587      6590      6591      6584      6587      6590      6592
      6584      6587      6590      6593      6585      6584      6587      6588
      6585      6584      6587      6589      6585      6584      6587      6590
      6586      6584      6587      6588      6586      6584      6587      6589
      6586      6584      6587      6590      6587      6590      6593      6594
      6587      6590      6593      6595      6587      6590      6593      6596
      6588      6587      6590      6591      6588      6587      6590      6592
      6588      6587      6590      6593      6589      6587      6590      6591
      6589      6587      6590      6592      6589      6587      6590      6593
      6590      6593      6596      6597      6590      6593      6596      6598
      6590      6593      6596      6599      6591      6590      6593      6594
      6591      6590      6593      6595      6591      6590      6593      6596
      6592      6590      6593      6594      6592      6590      6593      6595
      6592      6590      6593      6596      6593      6596      6599      6600
      6593      6596      6599      6601      6593      6596      6599      6602
      6594      6593      6596      6597      6594      6593      6596      6598
      6594      6593      6596      6599      6595      6593      6596      6597
      6595      6593      6596      6598      6595      6593      6596      6599
      6596      6599      6602      6603      6596      6599      6602      6604
      6596      6599      6602      6605      6597      6596      6599      6600
      6597      6596      6599      6601      6597      6596      6599      6602
      6598      6596      6599      6600      6598      6596      6599      6601
      6598      6596      6599      6602      6599      6602      6605      6606
      6599      6602      6605      6607      6599      6602      6605      6608
      6600      6599      6602      6603      6600      6599      6602      6604
      6600      6599      6602      6605      6601      6599      6602      6603
      6601      6599      6602      6604      6601      6599      6602      6605
      6603      6602      6605      6606      6603      6602      6605      6607
      6603      6602      6605      6608      6604      6602      6605      6606
      6604      6602      6605      6607      6604      6602      6605      6608
      6609      6613      6616      6617      6609      6613      6616      6618
      6609      6613      6616      6622      6610      6609      6613      6614
      6610      6609      6613      6615      6610      6609      6613      6616
      6611      6609      6613      6614      6611      6609      6613      6615
      6611      6609      6613      6616      6612      6609      6613      6614
      6612      6609      6613      6615      6612      6609      6613      6616
      6613      6616      6622      6619      6614      6613      6616      6617
      6614      6613      6616      6618      6614      6613      6616      6622
      6615      6613      6616      6617      6615      6613      6616      6618
      6615      6613      6616      6622      6616      6622      6619      6620
      6616      6622      6619      6621      6616      6622      6619      6623
      6617      6616      6622      6619      6618      6616      6622      6619
      6619      6623      6624      6625      6619      6623      6624      6626
      6619      6623      6624      6627      6620      6619      6623      6624
      6621      6619      6623      6624      6622      6619      6623      6624
      6623      6624      6627      6628      6623      6624      6627      6629
      6623      6624      6627      6635      6624      6627      6629      6630
      6624      6627      6635      6636      6624      6627      6635      6637
      6624      6627      6635      6638      6625      6624      6627      6628
      6625      6624      6627      6629      6625      6624      6627      6635
      6626      6624      6627      6628      6626      6624      6627      6629
      6626      6624      6627      6635      6627      6629      6630      6631
      6627      6629      6630      6632      6627      6635      6638      6639
      6628      6627      6629      6630      6628      6627      6635      6636
      6628      6627      6635      6637      6628      6627      6635      6638
      6629      6627      6635      6636      6629      6627      6635      6637
      6629      6627      6635      6638      6629      6630      6632      6633
      6629      6630      6632      6634      6629      6630      6632      6644
      6630      6629      6627      6635      6630      6632      6644      6645
      6630      6632      6644      6646      6630      6632      6644      6647
      6631      6630      6632      6633      6631      6630      6632      6634
      6631      6630      6632      6644      6632      6644      6647      6648
      6632      6644      6647      6649      6632      6644      6647      6650
      6633      6632      6644      6645      6633      6632      6644      6646
      6633      6632      6644      6647      6634      6632      6644      6645
      6634      6632      6644      6646      6634      6632      6644      6647
      6635      6638      6639      6640      6635      6638      6639      6641
      6636      6635      6638      6639      6637      6635      6638      6639
      6638      6639      6641      6642      6638      6639      6641      6643
      6638      6639      6641      6691      6639      6641      6691      6692
      6639      6641      6691      6693      6639      6641      6691      6694
      6640      6639      6641      6642      6640      6639      6641      6643
      6640      6639      6641      6691      6641      6691      6694      6695
      6641      6691      6694      6696      6641      6691      6694      6697
      6642      6641      6691      6692      6642      6641      6691      6693
      6642      6641      6691      6694      6643      6641      6691      6692
      6643      6641      6691      6693      6643      6641      6691      6694
      6644      6647      6650      6651      6644      6647      6650      6652
      6644      6647      6650      6653      6645      6644      6647      6648
      6645      6644      6647      6649      6645      6644      6647      6650
      6646      6644      6647      6648      6646      6644      6647      6649
      6646      6644      6647      6650      6647      6650      6653      6654
      6647      6650      6653      6655      6647      6650      6653      6656
      6648      6647      6650      6651      6648      6647      6650      6652
      6648      6647      6650      6653      6649      6647      6650      6651
      6649      6647      6650      6652      6649      6647      6650      6653
      6650      6653      6656      6657      6650      6653      6656      6658
      6650      6653      6656      6659      6651      6650      6653      6654
      6651      6650      6653      6655      6651      6650      6653      6656
      6652      6650      6653      6654      6652      6650      6653      6655
      6652      6650      6653      6656      6653      6656      6659      6660
      6653      6656      6659      6661      6653      6656      6659      6662
      6654      6653      6656      6657      6654      6653      6656      6658
      6654      6653      6656      6659      6655      6653      6656      6657
      6655      6653      6656      6658      6655      6653      6656      6659
      6656      6659      6662      6663      6656      6659      6662      6664
      6657      6656      6659      6660      6657      6656      6659      6661
      6657      6656      6659      6662      6658      6656      6659      6660
      6658      6656      6659      6661      6658      6656      6659      6662
      6659      6662      6664      6665      6659      6662      6664      6666
      6660      6659      6662      6663      6660      6659      6662      6664
      6661      6659      6662      6663      6661      6659      6662      6664
      6662      6664      6666      6667      6662      6664      6666      6668
      6662      6664      6666      6669      6663      6662      6664      6665
      6663      6662      6664      6666      6664      6666      6669      6670
      6664      6666      6669      6671      6664      6666      6669      6672
      6665      6664      6666      6667      6665      6664      6666      6668
      6665      6664      6666      6669      6666      6669      6672      6673
      6666      6669      6672      6674      6666      6669      6672      6675
      6667      6666      6669      6670      6667      6666      6669      6671
      6667      6666      6669      6672      6668      6666      6669      6670
      6668      6666      6669      6671      6668      6666      6669      6672
      6669      6672      6675      6676      6669      6672      6675      6677
      6669      6672      6675      6678      6670      6669      6672      6673
      6670      6669      6672      6674      6670      6669      6672      6675
      6671      6669      6672      6673      6671      6669      6672      6674
      6671      6669      6672      6675      6672      6675      6678      6679
      6672      6675      6678      6680      6672      6675      6678      6681
      6673      6672      6675      6676      6673      6672      6675      6677
      6673      6672      6675      6678      6674      6672      6675      6676
      6674      6672      6675      6677      6674      6672      6675      6678
      6675      6678      6681      6682      6675      6678      6681      6683
      6675      6678      6681      6684      6676      6675      6678      6679
      6676      6675      6678      6680      6676      6675      6678      6681
      6677      6675      6678      6679      6677      6675      6678      6680
      6677      6675      6678      6681      6678      6681      6684      6685
      6678      6681      6684      6686      6678      6681      6684      6687
      6679      6678      6681      6682      6679      6678      6681      6683
      6679      6678      6681      6684      6680      6678      6681      6682
      6680      6678      6681      6683      6680      6678      6681      6684
      6681      6684      6687      6688      6681      6684      6687      6689
      6681      6684      6687      6690      6682      6681      6684      6685
      6682      6681      6684      6686      6682      6681      6684      6687
      6683      6681      6684      6685      6683      6681      6684      6686
      6683      6681      6684      6687      6685      6684      6687      6688
      6685      6684      6687      6689      6685      6684      6687      6690
      6686      6684      6687      6688      6686      6684      6687      6689
      6686      6684      6687      6690      6691      6694      6697      6698
      6691      6694      6697      6699      6691      6694      6697      6700
      6692      6691      6694      6695      6692      6691      6694      6696
      6692      6691      6694      6697      6693      6691      6694      6695
      6693      6691      6694      6696      6693      6691      6694      6697
      6694      6697      6700      6701      6694      6697      6700      6702
      6694      6697      6700      6703      6695      6694      6697      6698
      6695      6694      6697      6699      6695      6694      6697      6700
      6696      6694      6697      6698      6696      6694      6697      6699
      6696      6694      6697      6700      6697      6700      6703      6704
      6697      6700      6703      6705      6697      6700      6703      6706
      6698      6697      6700      6701      6698      6697      6700      6702
      6698      6697      6700      6703      6699      6697      6700      6701
      6699      6697      6700      6702      6699      6697      6700      6703
      6700      6703      6706      6707      6700      6703      6706      6708
      6700      6703      6706      6709      6701      6700      6703      6704
      6701      6700      6703      6705      6701      6700      6703      6706
      6702      6700      6703      6704      6702      6700      6703      6705
      6702      6700      6703      6706      6703      6706      6709      6710
      6703      6706      6709      6711      6703      6706      6709      6712
      6704      6703      6706      6707      6704      6703      6706      6708
      6704      6703      6706      6709      6705      6703      6706      6707
      6705      6703      6706      6708      6705      6703      6706      6709
      6706      6709      6712      6713      6706      6709      6712      6714
      6706      6709      6712      6715      6707      6706      6709      6710
      6707      6706      6709      6711      6707      6706      6709      6712
      6708      6706      6709      6710      6708      6706      6709      6711
      6708      6706      6709      6712      6709      6712      6715      6716
      6709      6712      6715      6717      6709      6712      6715      6718
      6710      6709      6712      6713      6710      6709      6712      6714
      6710      6709      6712      6715      6711      6709      6712      6713
      6711      6709      6712      6714      6711      6709      6712      6715
      6712      6715      6718      6719      6712      6715      6718      6720
      6712      6715      6718      6721      6713      6712      6715      6716
      6713      6712      6715      6717      6713      6712      6715      6718
      6714      6712      6715      6716      6714      6712      6715      6717
      6714      6712      6715      6718      6715      6718      6721      6722
      6715      6718      6721      6723      6715      6718      6721      6724
      6716      6715      6718      6719      6716      6715      6718      6720
      6716      6715      6718      6721      6717      6715      6718      6719
      6717      6715      6718      6720      6717      6715      6718      6721
      6718      6721      6724      6725      6718      6721      6724      6726
      6718      6721      6724      6727      6719      6718      6721      6722
      6719      6718      6721      6723      6719      6718      6721      6724
      6720      6718      6721      6722      6720      6718      6721      6723
      6720      6718      6721      6724      6721      6724      6727      6728
      6721      6724      6727      6729      6721      6724      6727      6730
      6722      6721      6724      6725      6722      6721      6724      6726
      6722      6721      6724      6727      6723      6721      6724      6725
      6723      6721      6724      6726      6723      6721      6724      6727
      6724      6727      6730      6731      6724      6727      6730      6732
      6724      6727      6730      6733      6725      6724      6727      6728
      6725      6724      6727      6729      6725      6724      6727      6730
      6726      6724      6727      6728      6726      6724      6727      6729
      6726      6724      6727      6730      6727      6730      6733      6734
      6727      6730      6733      6735      6727      6730      6733      6736
      6728      6727      6730      6731      6728      6727      6730      6732
      6728      6727      6730      6733      6729      6727      6730      6731
      6729      6727      6730      6732      6729      6727      6730      6733
      6730      6733      6736      6737      6730      6733      6736      6738
      6730      6733      6736      6739      6731      6730      6733      6734
      6731      6730      6733      6735      6731      6730      6733      6736
      6732      6730      6733      6734      6732      6730      6733      6735
      6732      6730      6733      6736      6734      6733      6736      6737
      6734      6733      6736      6738      6734      6733      6736      6739
      6735      6733      6736      6737      6735      6733      6736      6738
      6735      6733      6736      6739      6740      6744      6747      6748
      6740      6744      6747      6749      6740      6744      6747      6753
      6741      6740      6744      6745      6741      6740      6744      6746
      6741      6740      6744      6747      6742      6740      6744      6745
      6742      6740      6744      6746      6742      6740      6744      6747
      6743      6740      6744      6745      6743      6740      6744      6746
      6743      6740      6744      6747      6744      6747      6753      6750
      6745      6744      6747      6748      6745      6744      6747      6749
      6745      6744      6747      6753      6746      6744      6747      6748
      6746      6744      6747      6749      6746      6744      6747      6753
      6747      6753      6750      6751      6747      6753      6750      6752
      6747      6753      6750      6754      6748      6747      6753      6750
      6749      6747      6753      6750      6750      6754      6755      6756
      6750      6754      6755      6757      6750      6754      6755      6758
      6751      6750      6754      6755      6752      6750      6754      6755
      6753      6750      6754      6755      6754      6755      6758      6759
      6754      6755      6758      6760      6754      6755      6758      6766
      6755      6758      6760      6761      6755      6758      6766      6767
      6755      6758      6766      6768      6755      6758      6766      6769
      6756      6755      6758      6759      6756      6755      6758      6760
      6756      6755      6758      6766      6757      6755      6758      6759
      6757      6755      6758      6760      6757      6755      6758      6766
      6758      6760      6761      6762      6758      6760      6761      6763
      6758      6766      6769      6770      6759      6758      6760      6761
      6759      6758      6766      6767      6759      6758      6766      6768
      6759      6758      6766      6769      6760      6758      6766      6767
      6760      6758      6766      6768      6760      6758      6766      6769
      6760      6761      6763      6764      6760      6761      6763      6765
      6760      6761      6763      6775      6761      6760      6758      6766
      6761      6763      6775      6776      6761      6763      6775      6777
      6761      6763      6775      6778      6762      6761      6763      6764
      6762      6761      6763      6765      6762      6761      6763      6775
      6763      6775      6778      6779      6763      6775      6778      6780
      6763      6775      6778      6781      6764      6763      6775      6776
      6764      6763      6775      6777      6764      6763      6775      6778
      6765      6763      6775      6776      6765      6763      6775      6777
      6765      6763      6775      6778      6766      6769      6770      6771
      6766      6769      6770      6772      6767      6766      6769      6770
      6768      6766      6769      6770      6769      6770      6772      6773
      6769      6770      6772      6774      6769      6770      6772      6822
      6770      6772      6822      6823      6770      6772      6822      6824
      6770      6772      6822      6825      6771      6770      6772      6773
      6771      6770      6772      6774      6771      6770      6772      6822
      6772      6822      6825      6826      6772      6822      6825      6827
      6772      6822      6825      6828      6773      6772      6822      6823
      6773      6772      6822      6824      6773      6772      6822      6825
      6774      6772      6822      6823      6774      6772      6822      6824
      6774      6772      6822      6825      6775      6778      6781      6782
      6775      6778      6781      6783      6775      6778      6781      6784
      6776      6775      6778      6779      6776      6775      6778      6780
      6776      6775      6778      6781      6777      6775      6778      6779
      6777      6775      6778      6780      6777      6775      6778      6781
      6778      6781      6784      6785      6778      6781      6784      6786
      6778      6781      6784      6787      6779      6778      6781      6782
      6779      6778      6781      6783      6779      6778      6781      6784
      6780      6778      6781      6782      6780      6778      6781      6783
      6780      6778      6781      6784      6781      6784      6787      6788
      6781      6784      6787      6789      6781      6784      6787      6790
      6782      6781      6784      6785      6782      6781      6784      6786
      6782      6781      6784      6787      6783      6781      6784      6785
      6783      6781      6784      6786      6783      6781      6784      6787
      6784      6787      6790      6791      6784      6787      6790      6792
      6784      6787      6790      6793      6785      6784      6787      6788
      6785      6784      6787      6789      6785      6784      6787      6790
      6786      6784      6787      6788      6786      6784      6787      6789
      6786      6784      6787      6790      6787      6790      6793      6794
      6787      6790      6793      6795      6788      6787      6790      6791
      6788      6787      6790      6792      6788      6787      6790      6793
      6789      6787      6790      6791      6789      6787      6790      6792
      6789      6787      6790      6793      6790      6793      6795      6796
      6790      6793      6795      6797      6791      6790      6793      6794
      6791      6790      6793      6795      6792      6790      6793      6794
      6792      6790      6793      6795      6793      6795      6797      6798
      6793      6795      6797      6799      6793      6795      6797      6800
      6794      6793      6795      6796      6794      6793      6795      6797
      6795      6797      6800      6801      6795      6797      6800      6802
      6795      6797      6800      6803      6796      6795      6797      6798
      6796      6795      6797      6799      6796      6795      6797      6800
      6797      6800      6803      6804      6797      6800      6803      6805
      6797      6800      6803      6806      6798      6797      6800      6801
      6798      6797      6800      6802      6798      6797      6800      6803
      6799      6797      6800      6801      6799      6797      6800      6802
      6799      6797      6800      6803      6800      6803      6806      6807
      6800      6803      6806      6808      6800      6803      6806      6809
      6801      6800      6803      6804      6801      6800      6803      6805
      6801      6800      6803      6806      6802      6800      6803      6804
      6802      6800      6803      6805      6802      6800      6803      6806
      6803      6806      6809      6810      6803      6806      6809      6811
      6803      6806      6809      6812      6804      6803      6806      6807
      6804      6803      6806      6808      6804      6803      6806      6809
      6805      6803      6806      6807      6805      6803      6806      6808
      6805      6803      6806      6809      6806      6809      6812      6813
      6806      6809      6812      6814      6806      6809      6812      6815
      6807      6806      6809      6810      6807      6806      6809      6811
      6807      6806      6809      6812      6808      6806      6809      6810
      6808      6806      6809      6811      6808      6806      6809      6812
      6809      6812      6815      6816      6809      6812      6815      6817
      6809      6812      6815      6818      6810      6809      6812      6813
      6810      6809      6812      6814      6810      6809      6812      6815
      6811      6809      6812      6813      6811      6809      6812      6814
      6811      6809      6812      6815      6812      6815      6818      6819
      6812      6815      6818      6820      6812      6815      6818      6821
      6813      6812      6815      6816      6813      6812      6815      6817
      6813      6812      6815      6818      6814      6812      6815      6816
      6814      6812      6815      6817      6814      6812      6815      6818
      6816      6815      6818      6819      6816      6815      6818      6820
      6816      6815      6818      6821      6817      6815      6818      6819
      6817      6815      6818      6820      6817      6815      6818      6821
      6822      6825      6828      6829      6822      6825      6828      6830
      6822      6825      6828      6831      6823      6822      6825      6826
      6823      6822      6825      6827      6823      6822      6825      6828
      6824      6822      6825      6826      6824      6822      6825      6827
      6824      6822      6825      6828      6825      6828      6831      6832
      6825      6828      6831      6833      6825      6828      6831      6834
      6826      6825      6828      6829      6826      6825      6828      6830
      6826      6825      6828      6831      6827      6825      6828      6829
      6827      6825      6828      6830      6827      6825      6828      6831
      6828      6831      6834      6835      6828      6831      6834      6836
      6828      6831      6834      6837      6829      6828      6831      6832
      6829      6828      6831      6833      6829      6828      6831      6834
      6830      6828      6831      6832      6830      6828      6831      6833
      6830      6828      6831      6834      6831      6834      6837      6838
      6831      6834      6837      6839      6831      6834      6837      6840
      6832      6831      6834      6835      6832      6831      6834      6836
      6832      6831      6834      6837      6833      6831      6834      6835
      6833      6831      6834      6836      6833      6831      6834      6837
      6834      6837      6840      6841      6834      6837      6840      6842
      6834      6837      6840      6843      6835      6834      6837      6838
      6835      6834      6837      6839      6835      6834      6837      6840
      6836      6834      6837      6838      6836      6834      6837      6839
      6836      6834      6837      6840      6837      6840      6843      6844
      6837      6840      6843      6845      6837      6840      6843      6846
      6838      6837      6840      6841      6838      6837      6840      6842
      6838      6837      6840      6843      6839      6837      6840      6841
      6839      6837      6840      6842      6839      6837      6840      6843
      6840      6843      6846      6847      6840      6843      6846      6848
      6840      6843      6846      6849      6841      6840      6843      6844
      6841      6840      6843      6845      6841      6840      6843      6846
      6842      6840      6843      6844      6842      6840      6843      6845
      6842      6840      6843      6846      6843      6846      6849      6850
      6843      6846      6849      6851      6843      6846      6849      6852
      6844      6843      6846      6847      6844      6843      6846      6848
      6844      6843      6846      6849      6845      6843      6846      6847
      6845      6843      6846      6848      6845      6843      6846      6849
      6846      6849      6852      6853      6846      6849      6852      6854
      6846      6849      6852      6855      6847      6846      6849      6850
      6847      6846      6849      6851      6847      6846      6849      6852
      6848      6846      6849      6850      6848      6846      6849      6851
      6848      6846      6849      6852      6849      6852      6855      6856
      6849      6852      6855      6857      6849      6852      6855      6858
      6850      6849      6852      6853      6850      6849      6852      6854
      6850      6849      6852      6855      6851      6849      6852      6853
      6851      6849      6852      6854      6851      6849      6852      6855
      6852      6855      6858      6859      6852      6855      6858      6860
      6852      6855      6858      6861      6853      6852      6855      6856
      6853      6852      6855      6857      6853      6852      6855      6858
      6854      6852      6855      6856      6854      6852      6855      6857
      6854      6852      6855      6858      6855      6858      6861      6862
      6855      6858      6861      6863      6855      6858      6861      6864
      6856      6855      6858      6859      6856      6855      6858      6860
      6856      6855      6858      6861      6857      6855      6858      6859
      6857      6855      6858      6860      6857      6855      6858      6861
      6858      6861      6864      6865      6858      6861      6864      6866
      6858      6861      6864      6867      6859      6858      6861      6862
      6859      6858      6861      6863      6859      6858      6861      6864
      6860      6858      6861      6862      6860      6858      6861      6863
      6860      6858      6861      6864      6861      6864      6867      6868
      6861      6864      6867      6869      6861      6864      6867      6870
      6862      6861      6864      6865      6862      6861      6864      6866
      6862      6861      6864      6867      6863      6861      6864      6865
      6863      6861      6864      6866      6863      6861      6864      6867
      6865      6864      6867      6868      6865      6864      6867      6869
      6865      6864      6867      6870      6866      6864      6867      6868
      6866      6864      6867      6869      6866      6864      6867      6870
      6871      6875      6877      6878      6871      6875      6877      6879
      6871      6875      6880      6881      6871      6875      6880      6882
      6871      6875      6880      6886      6872      6871      6875      6876
      6872      6871      6875      6877      6872      6871      6875      6880
      6873      6871      6875      6876      6873      6871      6875      6877
      6873      6871      6875      6880      6874      6871      6875      6876
      6874      6871      6875      6877      6874      6871      6875      6880
      6875      6880      6886      6883      6876      6875      6877      6878
      6876      6875      6877      6879      6876      6875      6880      6881
      6876      6875      6880      6882      6876      6875      6880      6886
      6877      6875      6880      6881      6877      6875      6880      6882
      6877      6875      6880      6886      6878      6877      6875      6880
      6879      6877      6875      6880      6880      6886      6883      6884
      6880      6886      6883      6885      6880      6886      6883      6887
      6881      6880      6886      6883      6882      6880      6886      6883
      6883      6887      6888      6889      6883      6887      6888      6890
      6883      6887      6888      6891      6884      6883      6887      6888
      6885      6883      6887      6888      6886      6883      6887      6888
      6887      6888      6891      6892      6887      6888      6891      6893
      6887      6888      6891      6899      6888      6891      6893      6894
      6888      6891      6899      6900      6888      6891      6899      6901
      6888      6891      6899      6902      6889      6888      6891      6892
      6889      6888      6891      6893      6889      6888      6891      6899
      6890      6888      6891      6892      6890      6888      6891      6893
      6890      6888      6891      6899      6891      6893      6894      6895
      6891      6893      6894      6896      6891      6899      6902      6903
      6892      6891      6893      6894      6892      6891      6899      6900
      6892      6891      6899      6901      6892      6891      6899      6902
      6893      6891      6899      6900      6893      6891      6899      6901
      6893      6891      6899      6902      6893      6894      6896      6897
      6893      6894      6896      6898      6893      6894      6896      6908
      6894      6893      6891      6899      6894      6896      6908      6909
      6894      6896      6908      6910      6894      6896      6908      6911
      6895      6894      6896      6897      6895      6894      6896      6898
      6895      6894      6896      6908      6896      6908      6911      6912
      6896      6908      6911      6913      6896      6908      6911      6914
      6897      6896      6908      6909      6897      6896      6908      6910
      6897      6896      6908      6911      6898      6896      6908      6909
      6898      6896      6908      6910      6898      6896      6908      6911
      6899      6902      6903      6904      6899      6902      6903      6905
      6900      6899      6902      6903      6901      6899      6902      6903
      6902      6903      6905      6906      6902      6903      6905      6907
      6902      6903      6905      6955      6903      6905      6955      6956
      6903      6905      6955      6957      6903      6905      6955      6958
      6904      6903      6905      6906      6904      6903      6905      6907
      6904      6903      6905      6955      6905      6955      6958      6959
      6905      6955      6958      6960      6905      6955      6958      6961
      6906      6905      6955      6956      6906      6905      6955      6957
      6906      6905      6955      6958      6907      6905      6955      6956
      6907      6905      6955      6957      6907      6905      6955      6958
      6908      6911      6914      6915      6908      6911      6914      6916
      6909      6908      6911      6912      6909      6908      6911      6913
      6909      6908      6911      6914      6910      6908      6911      6912
      6910      6908      6911      6913      6910      6908      6911      6914
      6911      6914      6916      6917      6911      6914      6916      6918
      6912      6911      6914      6915      6912      6911      6914      6916
      6913      6911      6914      6915      6913      6911      6914      6916
      6914      6916      6918      6919      6914      6916      6918      6920
      6914      6916      6918      6921      6915      6914      6916      6917
      6915      6914      6916      6918      6916      6918      6921      6922
      6916      6918      6921      6923      6917      6916      6918      6919
      6917      6916      6918      6920      6917      6916      6918      6921
      6918      6921      6923      6924      6918      6921      6923      6925
      6919      6918      6921      6922      6919      6918      6921      6923
      6920      6918      6921      6922      6920      6918      6921      6923
      6921      6923      6925      6926      6921      6923      6925      6927
      6921      6923      6925      6928      6922      6921      6923      6924
      6922      6921      6923      6925      6923      6925      6928      6929
      6923      6925      6928      6930      6924      6923      6925      6926
      6924      6923      6925      6927      6924      6923      6925      6928
      6925      6928      6930      6931      6925      6928      6930      6932
      6926      6925      6928      6929      6926      6925      6928      6930
      6927      6925      6928      6929      6927      6925      6928      6930
      6928      6930      6932      6933      6928      6930      6932      6934
      6928      6930      6932      6935      6929      6928      6930      6931
      6929      6928      6930      6932      6930      6932      6935      6936
      6930      6932      6935      6937      6931      6930      6932      6933
      6931      6930      6932      6934      6931      6930      6932      6935
      6932      6935      6937      6938      6932      6935      6937      6939
      6933      6932      6935      6936      6933      6932      6935      6937
      6934      6932      6935      6936      6934      6932      6935      6937
      6935      6937      6939      6940      6935      6937      6939      6941
      6935      6937      6939      6942      6936      6935      6937      6938
      6936      6935      6937      6939      6937      6939      6942      6943
      6937      6939      6942      6944      6937      6939      6942      6945
      6938      6937      6939      6940      6938      6937      6939      6941
      6938      6937      6939      6942      6939      6942      6945      6946
      6939      6942      6945      6947      6939      6942      6945      6948
      6940      6939      6942      6943      6940      6939      6942      6944
      6940      6939      6942      6945      6941      6939      6942      6943
      6941      6939      6942      6944      6941      6939      6942      6945
      6942      6945      6948      6949      6942      6945      6948      6950
      6942      6945      6948      6951      6943      6942      6945      6946
      6943      6942      6945      6947      6943      6942      6945      6948
      6944      6942      6945      6946      6944      6942      6945      6947
      6944      6942      6945      6948      6945      6948      6951      6952
      6945      6948      6951      6953      6945      6948      6951      6954
      6946      6945      6948      6949      6946      6945      6948      6950
      6946      6945      6948      6951      6947      6945      6948      6949
      6947      6945      6948      6950      6947      6945      6948      6951
      6949      6948      6951      6952      6949      6948      6951      6953
      6949      6948      6951      6954      6950      6948      6951      6952
      6950      6948      6951      6953      6950      6948      6951      6954
      6955      6958      6961      6962      6955      6958      6961      6963
      6955      6958      6961      6964      6956      6955      6958      6959
      6956      6955      6958      6960      6956      6955      6958      6961
      6957      6955      6958      6959      6957      6955      6958      6960
      6957      6955      6958      6961      6958      6961      6964      6965
      6958      6961      6964      6966      6958      6961      6964      6967
      6959      6958      6961      6962      6959      6958      6961      6963
      6959      6958      6961      6964      6960      6958      6961      6962
      6960      6958      6961      6963      6960      6958      6961      6964
      6961      6964      6967      6968      6961      6964      6967      6969
      6961      6964      6967      6970      6962      6961      6964      6965
      6962      6961      6964      6966      6962      6961      6964      6967
      6963      6961      6964      6965      6963      6961      6964      6966
      6963      6961      6964      6967      6964      6967      6970      6971
      6964      6967      6970      6972      6964      6967      6970      6973
      6965      6964      6967      6968      6965      6964      6967      6969
      6965      6964      6967      6970      6966      6964      6967      6968
      6966      6964      6967      6969      6966      6964      6967      6970
      6967      6970      6973      6974      6967      6970      6973      6975
      6967      6970      6973      6976      6968      6967      6970      6971
      6968      6967      6970      6972      6968      6967      6970      6973
      6969      6967      6970      6971      6969      6967      6970      6972
      6969      6967      6970      6973      6970      6973      6976      6977
      6970      6973      6976      6978      6970      6973      6976      6979
      6971      6970      6973      6974      6971      6970      6973      6975
      6971      6970      6973      6976      6972      6970      6973      6974
      6972      6970      6973      6975      6972      6970      6973      6976
      6973      6976      6979      6980      6973      6976      6979      6981
      6973      6976      6979      6982      6974      6973      6976      6977
      6974      6973      6976      6978      6974      6973      6976      6979
      6975      6973      6976      6977      6975      6973      6976      6978
      6975      6973      6976      6979      6976      6979      6982      6983
      6976      6979      6982      6984      6976      6979      6982      6985
      6977      6976      6979      6980      6977      6976      6979      6981
      6977      6976      6979      6982      6978      6976      6979      6980
      6978      6976      6979      6981      6978      6976      6979      6982
      6979      6982      6985      6986      6979      6982      6985      6987
      6979      6982      6985      6988      6980      6979      6982      6983
      6980      6979      6982      6984      6980      6979      6982      6985
      6981      6979      6982      6983      6981      6979      6982      6984
      6981      6979      6982      6985      6982      6985      6988      6989
      6982      6985      6988      6990      6982      6985      6988      6991
      6983      6982      6985      6986      6983      6982      6985      6987
      6983      6982      6985      6988      6984      6982      6985      6986
      6984      6982      6985      6987      6984      6982      6985      6988
      6985      6988      6991      6992      6985      6988      6991      6993
      6985      6988      6991      6994      6986      6985      6988      6989
      6986      6985      6988      6990      6986      6985      6988      6991
      6987      6985      6988      6989      6987      6985      6988      6990
      6987      6985      6988      6991      6988      6991      6994      6995
      6988      6991      6994      6996      6988      6991      6994      6997
      6989      6988      6991      6992      6989      6988      6991      6993
      6989      6988      6991      6994      6990      6988      6991      6992
      6990      6988      6991      6993      6990      6988      6991      6994
      6991      6994      6997      6998      6991      6994      6997      6999
      6991      6994      6997      7000      6992      6991      6994      6995
      6992      6991      6994      6996      6992      6991      6994      6997
      6993      6991      6994      6995      6993      6991      6994      6996
      6993      6991      6994      6997      6994      6997      7000      7001
      6994      6997      7000      7002      6994      6997      7000      7003
      6995      6994      6997      6998      6995      6994      6997      6999
      6995      6994      6997      7000      6996      6994      6997      6998
      6996      6994      6997      6999      6996      6994      6997      7000
      6998      6997      7000      7001      6998      6997      7000      7002
      6998      6997      7000      7003      6999      6997      7000      7001
      6999      6997      7000      7002      6999      6997      7000      7003
      7004      7017      7020      7021      7004      7017      7020      7022
      7004      7017      7020      7027      7005      7004      7009      7010
      7005      7004      7009      7011      7005      7004      7009      7012
      7005      7004      7013      7014      7005      7004      7013      7015
      7005      7004      7013      7016      7005      7004      7017      7018
      7005      7004      7017      7019      7005      7004      7017      7020
      7006      7005      7004      7009      7006      7005      7004      7013
      7006      7005      7004      7017      7007      7005      7004      7009
      7007      7005      7004      7013      7007      7005      7004      7017
      7008      7005      7004      7009      7008      7005      7004      7013
      7008      7005      7004      7017      7009      7004      7013      7014
      7009      7004      7013      7015      7009      7004      7013      7016
      7009      7004      7017      7018      7009      7004      7017      7019
      7009      7004      7017      7020      7010      7009      7004      7013
      7010      7009      7004      7017      7011      7009      7004      7013
      7011      7009      7004      7017      7012      7009      7004      7013
      7012      7009      7004      7017      7013      7004      7017      7018
      7013      7004      7017      7019      7013      7004      7017      7020
      7014      7013      7004      7017      7015      7013      7004      7017
      7016      7013      7004      7017      7017      7020      7027      7023
      7018      7017      7020      7021      7018      7017      7020      7022
      7018      7017      7020      7027      7019      7017      7020      7021
      7019      7017      7020      7022      7019      7017      7020      7027
      7020      7027      7023      7024      7020      7027      7023      7025
      7020      7027      7023      7026      7021      7020      7027      7023
      7022      7020      7027      7023      7023      7026      7028      7029
      7023      7026      7028      7030      7023      7026      7028      7033
      7024      7023      7026      7028      7025      7023      7026      7028
      7026      7028      7033      7031      7026      7028      7033      7034
      7026      7028      7033      7035      7027      7023      7026      7028
      7028      7033      7031      7032      7028      7033      7031      7083
      7028      7033      7035      7036      7028      7033      7035      7037
      7028      7033      7035      7039      7029      7028      7033      7031
      7029      7028      7033      7034      7029      7028      7033      7035
      7030      7028      7033      7031      7030      7028      7033      7034
      7030      7028      7033      7035      7031      7033      7035      7036
      7031      7033      7035      7037      7031      7033      7035      7039
      7031      7083      7085      7086      7031      7083      7085      7087
      7031      7083      7085      7088      7032      7031      7033      7034
      7032      7031      7033      7035      7032      7031      7083      7084
      7032      7031      7083      7085      7033      7031      7083      7084
      7033      7031      7083      7085      7033      7035      7037      7038
      7033      7035      7039      7040      7033      7035      7039      7041
      7034      7033      7031      7083      7034      7033      7035      7036
      7034      7033      7035      7037      7034      7033      7035      7039
      7035      7033      7031      7083      7035      7039      7041      7042
      7035      7039      7041      7043      7036      7035      7037      7038
      7036      7035      7039      7040      7036      7035      7039      7041
      7037      7035      7039      7040      7037      7035      7039      7041
      7038      7037      7035      7039      7039      7041      7043      7044
      7039      7041      7043      7045      7039      7041      7043      7046
      7040      7039      7041      7042      7040      7039      7041      7043
      7041      7043      7046      7047      7041      7043      7046      7048
      7041      7043      7046      7049      7042      7041      7043      7044
      7042      7041      7043      7045      7042      7041      7043      7046
      7043      7046      7049      7050      7043      7046      7049      7051
      7043      7046      7049      7052      7044      7043      7046      7047
      7044      7043      7046      7048      7044      7043      7046      7049
      7045      7043      7046      7047      7045      7043      7046      7048
      7045      7043      7046      7049      7046      7049      7052      7053
      7046      7049      7052      7054      7046      7049      7052      7055
      7047      7046      7049      7050      7047      7046      7049      7051
      7047      7046      7049      7052      7048      7046      7049      7050
      7048      7046      7049      7051      7048      7046      7049      7052
      7049      7052      7055      7056      7049      7052      7055      7057
      7049      7052      7055      7058      7050      7049      7052      7053
      7050      7049      7052      7054      7050      7049      7052      7055
      7051      7049      7052      7053      7051      7049      7052      7054
      7051      7049      7052      7055      7052      7055      7058      7059
      7052      7055      7058      7060      7052      7055      7058      7061
      7053      7052      7055      7056      7053      7052      7055      7057
      7053      7052      7055      7058      7054      7052      7055      7056
      7054      7052      7055      7057      7054      7052      7055      7058
      7055      7058      7061      7062      7055      7058      7061      7063
      7055      7058      7061      7064      7056      7055      7058      7059
      7056      7055      7058      7060      7056      7055      7058      7061
      7057      7055      7058      7059      7057      7055      7058      7060
      7057      7055      7058      7061      7058      7061      7064      7065
      7058      7061      7064      7066      7058      7061      7064      7067
      7059      7058      7061      7062      7059      7058      7061      7063
      7059      7058      7061      7064      7060      7058      7061      7062
      7060      7058      7061      7063      7060      7058      7061      7064
      7061      7064      7067      7068      7061      7064      7067      7069
      7061      7064      7067      7070      7062      7061      7064      7065
      7062      7061      7064      7066      7062      7061      7064      7067
      7063      7061      7064      7065      7063      7061      7064      7066
      7063      7061      7064      7067      7064      7067      7070      7071
      7064      7067      7070      7072      7064      7067      7070      7073
      7065      7064      7067      7068      7065      7064      7067      7069
      7065      7064      7067      7070      7066      7064      7067      7068
      7066      7064      7067      7069      7066      7064      7067      7070
      7067      7070      7073      7074      7067      7070      7073      7075
      7067      7070      7073      7076      7068      7067      7070      7071
      7068      7067      7070      7072      7068      7067      7070      7073
      7069      7067      7070      7071      7069      7067      7070      7072
      7069      7067      7070      7073      7070      7073      7076      7077
      7070      7073      7076      7078      7070      7073      7076      7079
      7071      7070      7073      7074      7071      7070      7073      7075
      7071      7070      7073      7076      7072      7070      7073      7074
      7072      7070      7073      7075      7072      7070      7073      7076
      7073      7076      7079      7080      7073      7076      7079      7081
      7073      7076      7079      7082      7074      7073      7076      7077
      7074      7073      7076      7078      7074      7073      7076      7079
      7075      7073      7076      7077      7075      7073      7076      7078
      7075      7073      7076      7079      7077      7076      7079      7080
      7077      7076      7079      7081      7077      7076      7079      7082
      7078      7076      7079      7080      7078      7076      7079      7081
      7078      7076      7079      7082      7083      7085      7088      7089
      7083      7085      7088      7090      7083      7085      7088      7091
      7084      7083      7085      7086      7084      7083      7085      7087
      7084      7083      7085      7088      7085      7088      7091      7092
      7085      7088      7091      7093      7085      7088      7091      7094
      7086      7085      7088      7089      7086      7085      7088      7090
      7086      7085      7088      7091      7087      7085      7088      7089
      7087      7085      7088      7090      7087      7085      7088      7091
      7088      7091      7094      7095      7088      7091      7094      7096
      7088      7091      7094      7097      7089      7088      7091      7092
      7089      7088      7091      7093      7089      7088      7091      7094
      7090      7088      7091      7092      7090      7088      7091      7093
      7090      7088      7091      7094      7091      7094      7097      7098
      7091      7094      7097      7099      7091      7094      7097      7100
      7092      7091      7094      7095      7092      7091      7094      7096
      7092      7091      7094      7097      7093      7091      7094      7095
      7093      7091      7094      7096      7093      7091      7094      7097
      7094      7097      7100      7101      7094      7097      7100      7102
      7094      7097      7100      7103      7095      7094      7097      7098
      7095      7094      7097      7099      7095      7094      7097      7100
      7096      7094      7097      7098      7096      7094      7097      7099
      7096      7094      7097      7100      7097      7100      7103      7104
      7097      7100      7103      7105      7097      7100      7103      7106
      7098      7097      7100      7101      7098      7097      7100      7102
      7098      7097      7100      7103      7099      7097      7100      7101
      7099      7097      7100      7102      7099      7097      7100      7103
      7100      7103      7106      7107      7100      7103      7106      7108
      7101      7100      7103      7104      7101      7100      7103      7105
      7101      7100      7103      7106      7102      7100      7103      7104
      7102      7100      7103      7105      7102      7100      7103      7106
      7103      7106      7108      7109      7103      7106      7108      7110
      7104      7103      7106      7107      7104      7103      7106      7108
      7105      7103      7106      7107      7105      7103      7106      7108
      7106      7108      7110      7111      7106      7108      7110      7112
      7106      7108      7110      7113      7107      7106      7108      7109
      7107      7106      7108      7110      7108      7110      7113      7114
      7108      7110      7113      7115      7108      7110      7113      7116
      7109      7108      7110      7111      7109      7108      7110      7112
      7109      7108      7110      7113      7110      7113      7116      7117
      7110      7113      7116      7118      7110      7113      7116      7119
      7111      7110      7113      7114      7111      7110      7113      7115
      7111      7110      7113      7116      7112      7110      7113      7114
      7112      7110      7113      7115      7112      7110      7113      7116
      7113      7116      7119      7120      7113      7116      7119      7121
      7113      7116      7119      7122      7114      7113      7116      7117
      7114      7113      7116      7118      7114      7113      7116      7119
      7115      7113      7116      7117      7115      7113      7116      7118
      7115      7113      7116      7119      7116      7119      7122      7123
      7116      7119      7122      7124      7116      7119      7122      7125
      7117      7116      7119      7120      7117      7116      7119      7121
      7117      7116      7119      7122      7118      7116      7119      7120
      7118      7116      7119      7121      7118      7116      7119      7122
      7119      7122      7125      7126      7119      7122      7125      7127
      7119      7122      7125      7128      7120      7119      7122      7123
      7120      7119      7122      7124      7120      7119      7122      7125
      7121      7119      7122      7123      7121      7119      7122      7124
      7121      7119      7122      7125      7122      7125      7128      7129
      7122      7125      7128      7130      7122      7125      7128      7131
      7123      7122      7125      7126      7123      7122      7125      7127
      7123      7122      7125      7128      7124      7122      7125      7126
      7124      7122      7125      7127      7124      7122      7125      7128
      7125      7128      7131      7132      7125      7128      7131      7133
      7125      7128      7131      7134      7126      7125      7128      7129
      7126      7125      7128      7130      7126      7125      7128      7131
      7127      7125      7128      7129      7127      7125      7128      7130
      7127      7125      7128      7131      7129      7128      7131      7132
      7129      7128      7131      7133      7129      7128      7131      7134
      7130      7128      7131      7132      7130      7128      7131      7133
      7130      7128      7131      7134      7135      7139      7142      7143
      7135      7139      7142      7144      7135      7139      7142      7148
      7136      7135      7139      7140      7136      7135      7139      7141
      7136      7135      7139      7142      7137      7135      7139      7140
      7137      7135      7139      7141      7137      7135      7139      7142
      7138      7135      7139      7140      7138      7135      7139      7141
      7138      7135      7139      7142      7139      7142      7148      7145
      7140      7139      7142      7143      7140      7139      7142      7144
      7140      7139      7142      7148      7141      7139      7142      7143
      7141      7139      7142      7144      7141      7139      7142      7148
      7142      7148      7145      7146      7142      7148      7145      7147
      7142      7148      7145      7149      7143      7142      7148      7145
      7144      7142      7148      7145      7145      7149      7150      7151
      7145      7149      7150      7152      7145      7149      7150      7153
      7146      7145      7149      7150      7147      7145      7149      7150
      7148      7145      7149      7150      7149      7150      7153      7154
      7149      7150      7153      7155      7149      7150      7153      7161
      7150      7153      7155      7156      7150      7153      7161      7162
      7150      7153      7161      7163      7150      7153      7161      7164
      7151      7150      7153      7154      7151      7150      7153      7155
      7151      7150      7153      7161      7152      7150      7153      7154
      7152      7150      7153      7155      7152      7150      7153      7161
      7153      7155      7156      7157      7153      7155      7156      7158
      7153      7161      7164      7165      7154      7153      7155      7156
      7154      7153      7161      7162      7154      7153      7161      7163
      7154      7153      7161      7164      7155      7153      7161      7162
      7155      7153      7161      7163      7155      7153      7161      7164
      7155      7156      7158      7159      7155      7156      7158      7160
      7155      7156      7158      7170      7156      7155      7153      7161
      7156      7158      7170      7171      7156      7158      7170      7172
      7156      7158      7170      7173      7157      7156      7158      7159
      7157      7156      7158      7160      7157      7156      7158      7170
      7158      7170      7173      7174      7158      7170      7173      7175
      7158      7170      7173      7176      7159      7158      7170      7171
      7159      7158      7170      7172      7159      7158      7170      7173
      7160      7158      7170      7171      7160      7158      7170      7172
      7160      7158      7170      7173      7161      7164      7165      7166
      7161      7164      7165      7167      7162      7161      7164      7165
      7163      7161      7164      7165      7164      7165      7167      7168
      7164      7165      7167      7169      7164      7165      7167      7217
      7165      7167      7217      7218      7165      7167      7217      7219
      7165      7167      7217      7220      7166      7165      7167      7168
      7166      7165      7167      7169      7166      7165      7167      7217
      7167      7217      7220      7221      7167      7217      7220      7222
      7167      7217      7220      7223      7168      7167      7217      7218
      7168      7167      7217      7219      7168      7167      7217      7220
      7169      7167      7217      7218      7169      7167      7217      7219
      7169      7167      7217      7220      7170      7173      7176      7177
      7170      7173      7176      7178      7171      7170      7173      7174
      7171      7170      7173      7175      7171      7170      7173      7176
      7172      7170      7173      7174      7172      7170      7173      7175
      7172      7170      7173      7176      7173      7176      7178      7179
      7173      7176      7178      7180      7174      7173      7176      7177
      7174      7173      7176      7178      7175      7173      7176      7177
      7175      7173      7176      7178      7176      7178      7180      7181
      7176      7178      7180      7182      7176      7178      7180      7183
      7177      7176      7178      7179      7177      7176      7178      7180
      7178      7180      7183      7184      7178      7180      7183      7185
      7179      7178      7180      7181      7179      7178      7180      7182
      7179      7178      7180      7183      7180      7183      7185      7186
      7180      7183      7185      7187      7181      7180      7183      7184
      7181      7180      7183      7185      7182      7180      7183      7184
      7182      7180      7183      7185      7183      7185      7187      7188
      7183      7185      7187      7189      7183      7185      7187      7190
      7184      7183      7185      7186      7184      7183      7185      7187
      7185      7187      7190      7191      7185      7187      7190      7192
      7186      7185      7187      7188      7186      7185      7187      7189
      7186      7185      7187      7190      7187      7190      7192      7193
      7187      7190      7192      7194      7188      7187      7190      7191
      7188      7187      7190      7192      7189      7187      7190      7191
      7189      7187      7190      7192      7190      7192      7194      7195
      7190      7192      7194      7196      7190      7192      7194      7197
      7191      7190      7192      7193      7191      7190      7192      7194
      7192      7194      7197      7198      7192      7194      7197      7199
      7193      7192      7194      7195      7193      7192      7194      7196
      7193      7192      7194      7197      7194      7197      7199      7200
      7194      7197      7199      7201      7195      7194      7197      7198
      7195      7194      7197      7199      7196      7194      7197      7198
      7196      7194      7197      7199      7197      7199      7201      7202
      7197      7199      7201      7203      7197      7199      7201      7204
      7198      7197      7199      7200      7198      7197      7199      7201
      7199      7201      7204      7205      7199      7201      7204      7206
      7199      7201      7204      7207      7200      7199      7201      7202
      7200      7199      7201      7203      7200      7199      7201      7204
      7201      7204      7207      7208      7201      7204      7207      7209
      7201      7204      7207      7210      7202      7201      7204      7205
      7202      7201      7204      7206      7202      7201      7204      7207
      7203      7201      7204      7205      7203      7201      7204      7206
      7203      7201      7204      7207      7204      7207      7210      7211
      7204      7207      7210      7212      7204      7207      7210      7213
      7205      7204      7207      7208      7205      7204      7207      7209
      7205      7204      7207      7210      7206      7204      7207      7208
      7206      7204      7207      7209      7206      7204      7207      7210
      7207      7210      7213      7214      7207      7210      7213      7215
      7207      7210      7213      7216      7208      7207      7210      7211
      7208      7207      7210      7212      7208      7207      7210      7213
      7209      7207      7210      7211      7209      7207      7210      7212
      7209      7207      7210      7213      7211      7210      7213      7214
      7211      7210      7213      7215      7211      7210      7213      7216
      7212      7210      7213      7214      7212      7210      7213      7215
      7212      7210      7213      7216      7217      7220      7223      7224
      7217      7220      7223      7225      7217      7220      7223      7226
      7218      7217      7220      7221      7218      7217      7220      7222
      7218      7217      7220      7223      7219      7217      7220      7221
      7219      7217      7220      7222      7219      7217      7220      7223
      7220      7223      7226      7227      7220      7223      7226      7228
      7220      7223      7226      7229      7221      7220      7223      7224
      7221      7220      7223      7225      7221      7220      7223      7226
      7222      7220      7223      7224      7222      7220      7223      7225
      7222      7220      7223      7226      7223      7226      7229      7230
      7223      7226      7229      7231      7223      7226      7229      7232
      7224      7223      7226      7227      7224      7223      7226      7228
      7224      7223      7226      7229      7225      7223      7226      7227
      7225      7223      7226      7228      7225      7223      7226      7229
      7226      7229      7232      7233      7226      7229      7232      7234
      7226      7229      7232      7235      7227      7226      7229      7230
      7227      7226      7229      7231      7227      7226      7229      7232
      7228      7226      7229      7230      7228      7226      7229      7231
      7228      7226      7229      7232      7229      7232      7235      7236
      7229      7232      7235      7237      7229      7232      7235      7238
      7230      7229      7232      7233      7230      7229      7232      7234
      7230      7229      7232      7235      7231      7229      7232      7233
      7231      7229      7232      7234      7231      7229      7232      7235
      7232      7235      7238      7239      7232      7235      7238      7240
      7232      7235      7238      7241      7233      7232      7235      7236
      7233      7232      7235      7237      7233      7232      7235      7238
      7234      7232      7235      7236      7234      7232      7235      7237
      7234      7232      7235      7238      7235      7238      7241      7242
      7235      7238      7241      7243      7235      7238      7241      7244
      7236      7235      7238      7239      7236      7235      7238      7240
      7236      7235      7238      7241      7237      7235      7238      7239
      7237      7235      7238      7240      7237      7235      7238      7241
      7238      7241      7244      7245      7238      7241      7244      7246
      7238      7241      7244      7247      7239      7238      7241      7242
      7239      7238      7241      7243      7239      7238      7241      7244
      7240      7238      7241      7242      7240      7238      7241      7243
      7240      7238      7241      7244      7241      7244      7247      7248
      7241      7244      7247      7249      7241      7244      7247      7250
      7242      7241      7244      7245      7242      7241      7244      7246
      7242      7241      7244      7247      7243      7241      7244      7245
      7243      7241      7244      7246      7243      7241      7244      7247
      7244      7247      7250      7251      7244      7247      7250      7252
      7244      7247      7250      7253      7245      7244      7247      7248
      7245      7244      7247      7249      7245      7244      7247      7250
      7246      7244      7247      7248      7246      7244      7247      7249
      7246      7244      7247      7250      7247      7250      7253      7254
      7247      7250      7253      7255      7247      7250      7253      7256
      7248      7247      7250      7251      7248      7247      7250      7252
      7248      7247      7250      7253      7249      7247      7250      7251
      7249      7247      7250      7252      7249      7247      7250      7253
      7250      7253      7256      7257      7250      7253      7256      7258
      7250      7253      7256      7259      7251      7250      7253      7254
      7251      7250      7253      7255      7251      7250      7253      7256
      7252      7250      7253      7254      7252      7250      7253      7255
      7252      7250      7253      7256      7253      7256      7259      7260
      7253      7256      7259      7261      7253      7256      7259      7262
      7254      7253      7256      7257      7254      7253      7256      7258
      7254      7253      7256      7259      7255      7253      7256      7257
      7255      7253      7256      7258      7255      7253      7256      7259
      7256      7259      7262      7263      7256      7259      7262      7264
      7256      7259      7262      7265      7257      7256      7259      7260
      7257      7256      7259      7261      7257      7256      7259      7262
      7258      7256      7259      7260      7258      7256      7259      7261
      7258      7256      7259      7262      7260      7259      7262      7263
      7260      7259      7262      7264      7260      7259      7262      7265
      7261      7259      7262      7263      7261      7259      7262      7264
      7261      7259      7262      7265      7266      7267      7282      7283
      7266      7267      7282      7284      7266      7267      7282      7288
      7267      7266      7270      7271      7267      7266      7270      7272
      7267      7266      7270      7273      7267      7266      7274      7275
      7267      7266      7274      7276      7267      7266      7274      7277
      7267      7266      7278      7279      7267      7266      7278      7280
      7267      7266      7278      7281      7267      7282      7288      7285
      7268      7267      7266      7270      7268      7267      7266      7274
      7268      7267      7266      7278      7268      7267      7282      7283
      7268      7267      7282      7284      7268      7267      7282      7288
      7269      7267      7266      7270      7269      7267      7266      7274
      7269      7267      7266      7278      7269      7267      7282      7283
      7269      7267      7282      7284      7269      7267      7282      7288
      7270      7266      7267      7282      7270      7266      7274      7275
      7270      7266      7274      7276      7270      7266      7274      7277
      7270      7266      7278      7279      7270      7266      7278      7280
      7270      7266      7278      7281      7271      7270      7266      7274
      7271      7270      7266      7278      7272      7270      7266      7274
      7272      7270      7266      7278      7273      7270      7266      7274
      7273      7270      7266      7278      7274      7266      7267      7282
      7274      7266      7278      7279      7274      7266      7278      7280
      7274      7266      7278      7281      7275      7274      7266      7278
      7276      7274      7266      7278      7277      7274      7266      7278
      7278      7266      7267      7282      7282      7288      7285      7286
      7282      7288      7285      7287      7282      7288      7285      7289
      7283      7282      7288      7285      7284      7282      7288      7285
      7285      7289      7290      7291      7285      7289      7290      7292
      7285      7289      7290      7293      7286      7285      7289      7290
      7287      7285      7289      7290      7288      7285      7289      7290
      7289      7290      7293      7294      7289      7290      7293      7295
      7289      7290      7293      7301      7290      7293      7295      7296
      7290      7293      7301      7302      7290      7293      7301      7303
      7290      7293      7301      7304      7291      7290      7293      7294
      7291      7290      7293      7295      7291      7290      7293      7301
      7292      7290      7293      7294      7292      7290      7293      7295
      7292      7290      7293      7301      7293      7295      7296      7297
      7293      7295      7296      7298      7293      7301      7304      7305
      7294      7293      7295      7296      7294      7293      7301      7302
      7294      7293      7301      7303      7294      7293      7301      7304
      7295      7293      7301      7302      7295      7293      7301      7303
      7295      7293      7301      7304      7295      7296      7298      7299
      7295      7296      7298      7300      7295      7296      7298      7310
      7296      7295      7293      7301      7296      7298      7310      7311
      7296      7298      7310      7312      7296      7298      7310      7313
      7297      7296      7298      7299      7297      7296      7298      7300
      7297      7296      7298      7310      7298      7310      7313      7314
      7298      7310      7313      7315      7298      7310      7313      7316
      7299      7298      7310      7311      7299      7298      7310      7312
      7299      7298      7310      7313      7300      7298      7310      7311
      7300      7298      7310      7312      7300      7298      7310      7313
      7301      7304      7305      7306      7301      7304      7305      7307
      7302      7301      7304      7305      7303      7301      7304      7305
      7304      7305      7307      7308      7304      7305      7307      7309
      7304      7305      7307      7357      7305      7307      7357      7358
      7305      7307      7357      7359      7305      7307      7357      7360
      7306      7305      7307      7308      7306      7305      7307      7309
      7306      7305      7307      7357      7307      7357      7360      7361
      7307      7357      7360      7362      7307      7357      7360      7363
      7308      7307      7357      7358      7308      7307      7357      7359
      7308      7307      7357      7360      7309      7307      7357      7358
      7309      7307      7357      7359      7309      7307      7357      7360
      7310      7313      7316      7317      7310      7313      7316      7318
      7310      7313      7316      7319      7311      7310      7313      7314
      7311      7310      7313      7315      7311      7310      7313      7316
      7312      7310      7313      7314      7312      7310      7313      7315
      7312      7310      7313      7316      7313      7316      7319      7320
      7313      7316      7319      7321      7313      7316      7319      7322
      7314      7313      7316      7317      7314      7313      7316      7318
      7314      7313      7316      7319      7315      7313      7316      7317
      7315      7313      7316      7318      7315      7313      7316      7319
      7316      7319      7322      7323      7316      7319      7322      7324
      7316      7319      7322      7325      7317      7316      7319      7320
      7317      7316      7319      7321      7317      7316      7319      7322
      7318      7316      7319      7320      7318      7316      7319      7321
      7318      7316      7319      7322      7319      7322      7325      7326
      7319      7322      7325      7327      7319      7322      7325      7328
      7320      7319      7322      7323      7320      7319      7322      7324
      7320      7319      7322      7325      7321      7319      7322      7323
      7321      7319      7322      7324      7321      7319      7322      7325
      7322      7325      7328      7329      7322      7325      7328      7330
      7323      7322      7325      7326      7323      7322      7325      7327
      7323      7322      7325      7328      7324      7322      7325      7326
      7324      7322      7325      7327      7324      7322      7325      7328
      7325      7328      7330      7331      7325      7328      7330      7332
      7326      7325      7328      7329      7326      7325      7328      7330
      7327      7325      7328      7329      7327      7325      7328      7330
      7328      7330      7332      7333      7328      7330      7332      7334
      7328      7330      7332      7335      7329      7328      7330      7331
      7329      7328      7330      7332      7330      7332      7335      7336
      7330      7332      7335      7337      7330      7332      7335      7338
      7331      7330      7332      7333      7331      7330      7332      7334
      7331      7330      7332      7335      7332      7335      7338      7339
      7332      7335      7338      7340      7332      7335      7338      7341
      7333      7332      7335      7336      7333      7332      7335      7337
      7333      7332      7335      7338      7334      7332      7335      7336
      7334      7332      7335      7337      7334      7332      7335      7338
      7335      7338      7341      7342      7335      7338      7341      7343
      7335      7338      7341      7344      7336      7335      7338      7339
      7336      7335      7338      7340      7336      7335      7338      7341
      7337      7335      7338      7339      7337      7335      7338      7340
      7337      7335      7338      7341      7338      7341      7344      7345
      7338      7341      7344      7346      7338      7341      7344      7347
      7339      7338      7341      7342      7339      7338      7341      7343
      7339      7338      7341      7344      7340      7338      7341      7342
      7340      7338      7341      7343      7340      7338      7341      7344
      7341      7344      7347      7348      7341      7344      7347      7349
      7341      7344      7347      7350      7342      7341      7344      7345
      7342      7341      7344      7346      7342      7341      7344      7347
      7343      7341      7344      7345      7343      7341      7344      7346
      7343      7341      7344      7347      7344      7347      7350      7351
      7344      7347      7350      7352      7344      7347      7350      7353
      7345      7344      7347      7348      7345      7344      7347      7349
      7345      7344      7347      7350      7346      7344      7347      7348
      7346      7344      7347      7349      7346      7344      7347      7350
      7347      7350      7353      7354      7347      7350      7353      7355
      7347      7350      7353      7356      7348      7347      7350      7351
      7348      7347      7350      7352      7348      7347      7350      7353
      7349      7347      7350      7351      7349      7347      7350      7352
      7349      7347      7350      7353      7351      7350      7353      7354
      7351      7350      7353      7355      7351      7350      7353      7356
      7352      7350      7353      7354      7352      7350      7353      7355
      7352      7350      7353      7356      7357      7360      7363      7364
      7357      7360      7363      7365      7357      7360      7363      7366
      7358      7357      7360      7361      7358      7357      7360      7362
      7358      7357      7360      7363      7359      7357      7360      7361
      7359      7357      7360      7362      7359      7357      7360      7363
      7360      7363      7366      7367      7360      7363      7366      7368
      7360      7363      7366      7369      7361      7360      7363      7364
      7361      7360      7363      7365      7361      7360      7363      7366
      7362      7360      7363      7364      7362      7360      7363      7365
      7362      7360      7363      7366      7363      7366      7369      7370
      7363      7366      7369      7371      7363      7366      7369      7372
      7364      7363      7366      7367      7364      7363      7366      7368
      7364      7363      7366      7369      7365      7363      7366      7367
      7365      7363      7366      7368      7365      7363      7366      7369
      7366      7369      7372      7373      7366      7369      7372      7374
      7366      7369      7372      7375      7367      7366      7369      7370
      7367      7366      7369      7371      7367      7366      7369      7372
      7368      7366      7369      7370      7368      7366      7369      7371
      7368      7366      7369      7372      7369      7372      7375      7376
      7369      7372      7375      7377      7369      7372      7375      7378
      7370      7369      7372      7373      7370      7369      7372      7374
      7370      7369      7372      7375      7371      7369      7372      7373
      7371      7369      7372      7374      7371      7369      7372      7375
      7372      7375      7378      7379      7372      7375      7378      7380
      7372      7375      7378      7381      7373      7372      7375      7376
      7373      7372      7375      7377      7373      7372      7375      7378
      7374      7372      7375      7376      7374      7372      7375      7377
      7374      7372      7375      7378      7375      7378      7381      7382
      7375      7378      7381      7383      7375      7378      7381      7384
      7376      7375      7378      7379      7376      7375      7378      7380
      7376      7375      7378      7381      7377      7375      7378      7379
      7377      7375      7378      7380      7377      7375      7378      7381
      7378      7381      7384      7385      7378      7381      7384      7386
      7378      7381      7384      7387      7379      7378      7381      7382
      7379      7378      7381      7383      7379      7378      7381      7384
      7380      7378      7381      7382      7380      7378      7381      7383
      7380      7378      7381      7384      7381      7384      7387      7388
      7381      7384      7387      7389      7381      7384      7387      7390
      7382      7381      7384      7385      7382      7381      7384      7386
      7382      7381      7384      7387      7383      7381      7384      7385
      7383      7381      7384      7386      7383      7381      7384      7387
      7384      7387      7390      7391      7384      7387      7390      7392
      7384      7387      7390      7393      7385      7384      7387      7388
      7385      7384      7387      7389      7385      7384      7387      7390
      7386      7384      7387      7388      7386      7384      7387      7389
      7386      7384      7387      7390      7387      7390      7393      7394
      7387      7390      7393      7395      7387      7390      7393      7396
      7388      7387      7390      7391      7388      7387      7390      7392
      7388      7387      7390      7393      7389      7387      7390      7391
      7389      7387      7390      7392      7389      7387      7390      7393
      7390      7393      7396      7397      7390      7393      7396      7398
      7390      7393      7396      7399      7391      7390      7393      7394
      7391      7390      7393      7395      7391      7390      7393      7396
      7392      7390      7393      7394      7392      7390      7393      7395
      7392      7390      7393      7396      7394      7393      7396      7397
      7394      7393      7396      7398      7394      7393      7396      7399
      7395      7393      7396      7397      7395      7393      7396      7398
      7395      7393      7396      7399      7400      7404      7407      7408
      7400      7404      7407      7409      7400      7404      7407      7413
      7401      7400      7404      7405      7401      7400      7404      7406
      7401      7400      7404      7407      7402      7400      7404      7405
      7402      7400      7404      7406      7402      7400      7404      7407
      7403      7400      7404      7405      7403      7400      7404      7406
      7403      7400      7404      7407      7404      7407      7413      7410
      7405      7404      7407      7408      7405      7404      7407      7409
      7405      7404      7407      7413      7406      7404      7407      7408
      7406      7404      7407      7409      7406      7404      7407      7413
      7407      7413      7410      7411      7407      7413      7410      7412
      7407      7413      7410      7414      7408      7407      7413      7410
      7409      7407      7413      7410      7410      7414      7415      7416
      7410      7414      7415      7417      7410      7414      7415      7418
      7411      7410      7414      7415      7412      7410      7414      7415
      7413      7410      7414      7415      7414      7415      7418      7419
      7414      7415      7418      7420      7414      7415      7418      7426
      7415      7418      7420      7421      7415      7418      7426      7427
      7415      7418      7426      7428      7415      7418      7426      7429
      7416      7415      7418      7419      7416      7415      7418      7420
      7416      7415      7418      7426      7417      7415      7418      7419
      7417      7415      7418      7420      7417      7415      7418      7426
      7418      7420      7421      7422      7418      7420      7421      7423
      7418      7426      7429      7430      7419      7418      7420      7421
      7419      7418      7426      7427      7419      7418      7426      7428
      7419      7418      7426      7429      7420      7418      7426      7427
      7420      7418      7426      7428      7420      7418      7426      7429
      7420      7421      7423      7424      7420      7421      7423      7425
      7420      7421      7423      7435      7421      7420      7418      7426
      7421      7423      7435      7436      7421      7423      7435      7437
      7421      7423      7435      7438      7422      7421      7423      7424
      7422      7421      7423      7425      7422      7421      7423      7435
      7423      7435      7438      7439      7423      7435      7438      7440
      7423      7435      7438      7441      7424      7423      7435      7436
      7424      7423      7435      7437      7424      7423      7435      7438
      7425      7423      7435      7436      7425      7423      7435      7437
      7425      7423      7435      7438      7426      7429      7430      7431
      7426      7429      7430      7432      7427      7426      7429      7430
      7428      7426      7429      7430      7429      7430      7432      7433
      7429      7430      7432      7434      7429      7430      7432      7482
      7430      7432      7482      7483      7430      7432      7482      7484
      7430      7432      7482      7485      7431      7430      7432      7433
      7431      7430      7432      7434      7431      7430      7432      7482
      7432      7482      7485      7486      7432      7482      7485      7487
      7432      7482      7485      7488      7433      7432      7482      7483
      7433      7432      7482      7484      7433      7432      7482      7485
      7434      7432      7482      7483      7434      7432      7482      7484
      7434      7432      7482      7485      7435      7438      7441      7442
      7435      7438      7441      7443      7435      7438      7441      7444
      7436      7435      7438      7439      7436      7435      7438      7440
      7436      7435      7438      7441      7437      7435      7438      7439
      7437      7435      7438      7440      7437      7435      7438      7441
      7438      7441      7444      7445      7438      7441      7444      7446
      7438      7441      7444      7447      7439      7438      7441      7442
      7439      7438      7441      7443      7439      7438      7441      7444
      7440      7438      7441      7442      7440      7438      7441      7443
      7440      7438      7441      7444      7441      7444      7447      7448
      7441      7444      7447      7449      7441      7444      7447      7450
      7442      7441      7444      7445      7442      7441      7444      7446
      7442      7441      7444      7447      7443      7441      7444      7445
      7443      7441      7444      7446      7443      7441      7444      7447
      7444      7447      7450      7451      7444      7447      7450      7452
      7444      7447      7450      7453      7445      7444      7447      7448
      7445      7444      7447      7449      7445      7444      7447      7450
      7446      7444      7447      7448      7446      7444      7447      7449
      7446      7444      7447      7450      7447      7450      7453      7454
      7447      7450      7453      7455      7448      7447      7450      7451
      7448      7447      7450      7452      7448      7447      7450      7453
      7449      7447      7450      7451      7449      7447      7450      7452
      7449      7447      7450      7453      7450      7453      7455      7456
      7450      7453      7455      7457      7451      7450      7453      7454
      7451      7450      7453      7455      7452      7450      7453      7454
      7452      7450      7453      7455      7453      7455      7457      7458
      7453      7455      7457      7459      7453      7455      7457      7460
      7454      7453      7455      7456      7454      7453      7455      7457
      7455      7457      7460      7461      7455      7457      7460      7462
      7455      7457      7460      7463      7456      7455      7457      7458
      7456      7455      7457      7459      7456      7455      7457      7460
      7457      7460      7463      7464      7457      7460      7463      7465
      7457      7460      7463      7466      7458      7457      7460      7461
      7458      7457      7460      7462      7458      7457      7460      7463
      7459      7457      7460      7461      7459      7457      7460      7462
      7459      7457      7460      7463      7460      7463      7466      7467
      7460      7463      7466      7468      7460      7463      7466      7469
      7461      7460      7463      7464      7461      7460      7463      7465
      7461      7460      7463      7466      7462      7460      7463      7464
      7462      7460      7463      7465      7462      7460      7463      7466
      7463      7466      7469      7470      7463      7466      7469      7471
      7463      7466      7469      7472      7464      7463      7466      7467
      7464      7463      7466      7468      7464      7463      7466      7469
      7465      7463      7466      7467      7465      7463      7466      7468
      7465      7463      7466      7469      7466      7469      7472      7473
      7466      7469      7472      7474      7466      7469      7472      7475
      7467      7466      7469      7470      7467      7466      7469      7471
      7467      7466      7469      7472      7468      7466      7469      7470
      7468      7466      7469      7471      7468      7466      7469      7472
      7469      7472      7475      7476      7469      7472      7475      7477
      7469      7472      7475      7478      7470      7469      7472      7473
      7470      7469      7472      7474      7470      7469      7472      7475
      7471      7469      7472      7473      7471      7469      7472      7474
      7471      7469      7472      7475      7472      7475      7478      7479
      7472      7475      7478      7480      7472      7475      7478      7481
      7473      7472      7475      7476      7473      7472      7475      7477
      7473      7472      7475      7478      7474      7472      7475      7476
      7474      7472      7475      7477      7474      7472      7475      7478
      7476      7475      7478      7479      7476      7475      7478      7480
      7476      7475      7478      7481      7477      7475      7478      7479
      7477      7475      7478      7480      7477      7475      7478      7481
      7482      7485      7488      7489      7482      7485      7488      7490
      7482      7485      7488      7491      7483      7482      7485      7486
      7483      7482      7485      7487      7483      7482      7485      7488
      7484      7482      7485      7486      7484      7482      7485      7487
      7484      7482      7485      7488      7485      7488      7491      7492
      7485      7488      7491      7493      7485      7488      7491      7494
      7486      7485      7488      7489      7486      7485      7488      7490
      7486      7485      7488      7491      7487      7485      7488      7489
      7487      7485      7488      7490      7487      7485      7488      7491
      7488      7491      7494      7495      7488      7491      7494      7496
      7488      7491      7494      7497      7489      7488      7491      7492
      7489      7488      7491      7493      7489      7488      7491      7494
      7490      7488      7491      7492      7490      7488      7491      7493
      7490      7488      7491      7494      7491      7494      7497      7498
      7491      7494      7497      7499      7491      7494      7497      7500
      7492      7491      7494      7495      7492      7491      7494      7496
      7492      7491      7494      7497      7493      7491      7494      7495
      7493      7491      7494      7496      7493      7491      7494      7497
      7494      7497      7500      7501      7494      7497      7500      7502
      7494      7497      7500      7503      7495      7494      7497      7498
      7495      7494      7497      7499      7495      7494      7497      7500
      7496      7494      7497      7498      7496      7494      7497      7499
      7496      7494      7497      7500      7497      7500      7503      7504
      7497      7500      7503      7505      7497      7500      7503      7506
      7498      7497      7500      7501      7498      7497      7500      7502
      7498      7497      7500      7503      7499      7497      7500      7501
      7499      7497      7500      7502      7499      7497      7500      7503
      7500      7503      7506      7507      7500      7503      7506      7508
      7500      7503      7506      7509      7501      7500      7503      7504
      7501      7500      7503      7505      7501      7500      7503      7506
      7502      7500      7503      7504      7502      7500      7503      7505
      7502      7500      7503      7506      7503      7506      7509      7510
      7503      7506      7509      7511      7503      7506      7509      7512
      7504      7503      7506      7507      7504      7503      7506      7508
      7504      7503      7506      7509      7505      7503      7506      7507
      7505      7503      7506      7508      7505      7503      7506      7509
      7506      7509      7512      7513      7506      7509      7512      7514
      7506      7509      7512      7515      7507      7506      7509      7510
      7507      7506      7509      7511      7507      7506      7509      7512
      7508      7506      7509      7510      7508      7506      7509      7511
      7508      7506      7509      7512      7509      7512      7515      7516
      7509      7512      7515      7517      7509      7512      7515      7518
      7510      7509      7512      7513      7510      7509      7512      7514
      7510      7509      7512      7515      7511      7509      7512      7513
      7511      7509      7512      7514      7511      7509      7512      7515
      7512      7515      7518      7519      7512      7515      7518      7520
      7512      7515      7518      7521      7513      7512      7515      7516
      7513      7512      7515      7517      7513      7512      7515      7518
      7514      7512      7515      7516      7514      7512      7515      7517
      7514      7512      7515      7518      7515      7518      7521      7522
      7515      7518      7521      7523      7515      7518      7521      7524
      7516      7515      7518      7519      7516      7515      7518      7520
      7516      7515      7518      7521      7517      7515      7518      7519
      7517      7515      7518      7520      7517      7515      7518      7521
      7518      7521      7524      7525      7518      7521      7524      7526
      7518      7521      7524      7527      7519      7518      7521      7522
      7519      7518      7521      7523      7519      7518      7521      7524
      7520      7518      7521      7522      7520      7518      7521      7523
      7520      7518      7521      7524      7521      7524      7527      7528
      7521      7524      7527      7529      7521      7524      7527      7530
      7522      7521      7524      7525      7522      7521      7524      7526
      7522      7521      7524      7527      7523      7521      7524      7525
      7523      7521      7524      7526      7523      7521      7524      7527
      7525      7524      7527      7528      7525      7524      7527      7529
      7525      7524      7527      7530      7526      7524      7527      7528
      7526      7524      7527      7529      7526      7524      7527      7530
      7531      7535      7538      7539      7531      7535      7538      7569
      7531      7577      7574      7569      7531      7577      7574      7575
      7531      7577      7574      7576      7532      7531      7533      7534
      7532      7531      7535      7536      7532      7531      7535      7537
      7532      7531      7535      7538      7532      7531      7577      7574
      7532      7531      7577      7578      7532      7531      7577      7579
      7533      7531      7535      7536      7533      7531      7535      7537
      7533      7531      7535      7538      7533      7531      7577      7574
      7533      7531      7577      7578      7533      7531      7577      7579
      7534      7533      7531      7535      7534      7533      7531      7577
      7535      7531      7577      7574      7535      7531      7577      7578
      7535      7531      7577      7579      7535      7538      7539      7540
      7535      7538      7539      7541      7535      7538      7569      7567
      7535      7538      7569      7570      7535      7538      7569      7574
      7536      7535      7531      7577      7536      7535      7538      7539
      7536      7535      7538      7569      7537      7535      7531      7577
      7537      7535      7538      7539      7537      7535      7538      7569
      7538      7535      7531      7577      7538      7539      7541      7542
      7538      7539      7541      7543      7538      7539      7541      7544
      7538      7569      7567      7544      7538      7569      7567      7564
      7538      7569      7567      7568      7538      7569      7570      7571
      7538      7569      7570      7572      7538      7569      7570      7573
      7538      7569      7574      7575      7538      7569      7574      7576
      7538      7569      7574      7577      7539      7538      7569      7567
      7539      7538      7569      7570      7539      7538      7569      7574
      7539      7541      7544      7545      7539      7541      7544      7546
      7539      7541      7544      7567      7540      7539      7538      7569
      7540      7539      7541      7542      7540      7539      7541      7543
      7540      7539      7541      7544      7541      7539      7538      7569
      7541      7544      7546      7547      7541      7544      7546      7548
      7541      7544      7546      7556      7541      7544      7567      7564
      7541      7544      7567      7568      7541      7544      7567      7569
      7542      7541      7544      7545      7542      7541      7544      7546
      7542      7541      7544      7567      7543      7541      7544      7545
      7543      7541      7544      7546      7543      7541      7544      7567
      7544      7546      7548      7549      7544      7546      7548      7550
      7544      7546      7548      7551      7544      7546      7556      7554
      7544      7546      7556      7557      7544      7546      7556      7561
      7544      7567      7564      7561      7544      7567      7564      7565
      7544      7567      7564      7566      7544      7567      7569      7570
      7544      7567      7569      7574      7545      7544      7546      7547
      7545      7544      7546      7548      7545      7544      7546      7556
      7545      7544      7567      7564      7545      7544      7567      7568
      7545      7544      7567      7569      7546      7544      7567      7564
      7546      7544      7567      7568      7546      7544      7567      7569
      7546      7548      7551      7552      7546      7548      7551      7553
      7546      7548      7551      7554      7546      7556      7554      7551
      7546      7556      7554      7555      7546      7556      7554      7580
      7546      7556      7557      7558      7546      7556      7557      7559
      7546      7556      7557      7560      7546      7556      7561      7562
      7546      7556      7561      7563      7546      7556      7561      7564
      7547      7546      7544      7567      7547      7546      7548      7549
      7547      7546      7548      7550      7547      7546      7548      7551
      7547      7546      7556      7554      7547      7546      7556      7557
      7547      7546      7556      7561      7548      7546      7544      7567
      7548      7546      7556      7554      7548      7546      7556      7557
      7548      7546      7556      7561      7548      7551      7554      7555
      7548      7551      7554      7556      7548      7551      7554      7580
      7549      7548      7546      7556      7549      7548      7551      7552
      7549      7548      7551      7553      7549      7548      7551      7554
      7550      7548      7546      7556      7550      7548      7551      7552
      7550      7548      7551      7553      7550      7548      7551      7554
      7551      7548      7546      7556      7551      7554      7556      7557
      7551      7554      7556      7561      7551      7554      7580      7581
      7551      7554      7580      7582      7551      7554      7580      7586
      7552      7551      7554      7555      7552      7551      7554      7556
      7552      7551      7554      7580      7553      7551      7554      7555
      7553      7551      7554      7556      7553      7551      7554      7580
      7554      7556      7557      7558      7554      7556      7557      7559
      7554      7556      7557      7560      7554      7556      7561      7562
      7554      7556      7561      7563      7554      7556      7561      7564
      7554      7580      7582      7583      7554      7580      7582      7584
      7554      7580      7582      7585      7554      7580      7586      7587
      7554      7580      7586      7588      7554      7580      7586      7589
      7555      7554      7556      7557      7555      7554      7556      7561
      7555      7554      7580      7581      7555      7554      7580      7582
      7555      7554      7580      7586      7556      7546      7544      7567
      7556      7554      7580      7581      7556      7554      7580      7582
      7556      7554      7580      7586      7556      7561      7564      7565
      7556      7561      7564      7566      7556      7561      7564      7567
      7557      7556      7554      7580      7557      7556      7561      7562
      7557      7556      7561      7563      7557      7556      7561      7564
      7558      7557      7556      7561      7559      7557      7556      7561
      7560      7557      7556      7561      7561      7556      7554      7580
      7561      7564      7567      7568      7561      7564      7567      7569
      7562      7561      7564      7565      7562      7561      7564      7566
      7562      7561      7564      7567      7563      7561      7564      7565
      7563      7561      7564      7566      7563      7561      7564      7567
      7564      7567      7569      7570      7564      7567      7569      7574
      7565      7564      7567      7568      7565      7564      7567      7569
      7566      7564      7567      7568      7566      7564      7567      7569
      7567      7569      7570      7571      7567      7569      7570      7572
      7567      7569      7570      7573      7567      7569      7574      7575
      7567      7569      7574      7576      7567      7569      7574      7577
      7568      7567      7569      7570      7568      7567      7569      7574
      7569      7574      7577      7578      7569      7574      7577      7579
      7570      7569      7574      7575      7570      7569      7574      7576
      7570      7569      7574      7577      7571      7570      7569      7574
      7572      7570      7569      7574      7573      7570      7569      7574
      7575      7574      7577      7578      7575      7574      7577      7579
      7576      7574      7577      7578      7576      7574      7577      7579
      7580      7586      7589      7590      7580      7586      7589      7591
      7580      7586      7589      7592      7581      7580      7582      7583
      7581      7580      7582      7584      7581      7580      7582      7585
      7581      7580      7586      7587      7581      7580      7586      7588
      7581      7580      7586      7589      7582      7580      7586      7587
      7582      7580      7586      7588      7582      7580      7586      7589
      7583      7582      7580      7586      7584      7582      7580      7586
      7585      7582      7580      7586      7586      7589      7592      7593
      7586      7589      7592      7594      7586      7589      7592      7595
      7587      7586      7589      7590      7587      7586      7589      7591
      7587      7586      7589      7592      7588      7586      7589      7590
      7588      7586      7589      7591      7588      7586      7589      7592
      7589      7592      7595      7596      7589      7592      7595      7597
      7589      7592      7595      7601      7590      7589      7592      7593
      7590      7589      7592      7594      7590      7589      7592      7595
      7591      7589      7592      7593      7591      7589      7592      7594
      7591      7589      7592      7595      7592      7595      7597      7598
      7592      7595      7597      7599      7592      7595      7597      7600
      7592      7595      7601      7602      7592      7595      7601      7603
      7592      7595      7601      7604      7593      7592      7595      7596
      7593      7592      7595      7597      7593      7592      7595      7601
      7594      7592      7595      7596      7594      7592      7595      7597
      7594      7592      7595      7601      7596      7595      7597      7598
      7596      7595      7597      7599      7596      7595      7597      7600
      7596      7595      7601      7602      7596      7595      7601      7603
      7596      7595      7601      7604      7597      7595      7601      7602
      7597      7595      7601      7603      7597      7595      7601      7604
      7598      7597      7595      7601      7599      7597      7595      7601
      7600      7597      7595      7601      7605      7606      7621      7622
      7605      7606      7621      7623      7605      7606      7621      7627
      7606      7605      7609      7610      7606      7605      7609      7611
      7606      7605      7609      7612      7606      7605      7613      7614
      7606      7605      7613      7615      7606      7605      7613      7616
      7606      7605      7617      7618      7606      7605      7617      7619
      7606      7605      7617      7620      7606      7621      7627      7624
      7607      7606      7605      7609      7607      7606      7605      7613
      7607      7606      7605      7617      7607      7606      7621      7622
      7607      7606      7621      7623      7607      7606      7621      7627
      7608      7606      7605      7609      7608      7606      7605      7613
      7608      7606      7605      7617      7608      7606      7621      7622
      7608      7606      7621      7623      7608      7606      7621      7627
      7609      7605      7606      7621      7609      7605      7613      7614
      7609      7605      7613      7615      7609      7605      7613      7616
      7609      7605      7617      7618      7609      7605      7617      7619
      7609      7605      7617      7620      7610      7609      7605      7613
      7610      7609      7605      7617      7611      7609      7605      7613
      7611      7609      7605      7617      7612      7609      7605      7613
      7612      7609      7605      7617      7613      7605      7606      7621
      7613      7605      7617      7618      7613      7605      7617      7619
      7613      7605      7617      7620      7614      7613      7605      7617
      7615      7613      7605      7617      7616      7613      7605      7617
      7617      7605      7606      7621      7621      7627      7624      7625
      7621      7627      7624      7626      7621      7627      7624      7628
      7622      7621      7627      7624      7623      7621      7627      7624
      7624      7628      7629      7630      7624      7628      7629      7631
      7624      7628      7629      7632      7625      7624      7628      7629
      7626      7624      7628      7629      7627      7624      7628      7629
      7628      7629      7632      7633      7628      7629      7632      7634
      7628      7629      7632      7640      7629      7632      7634      7635
      7629      7632      7640      7641      7629      7632      7640      7642
      7629      7632      7640      7643      7630      7629      7632      7633
      7630      7629      7632      7634      7630      7629      7632      7640
      7631      7629      7632      7633      7631      7629      7632      7634
      7631      7629      7632      7640      7632      7634      7635      7636
      7632      7634      7635      7637      7632      7640      7643      7644
      7633      7632      7634      7635      7633      7632      7640      7641
      7633      7632      7640      7642      7633      7632      7640      7643
      7634      7632      7640      7641      7634      7632      7640      7642
      7634      7632      7640      7643      7634      7635      7637      7638
      7634      7635      7637      7639      7634      7635      7637      7649
      7635      7634      7632      7640      7635      7637      7649      7650
      7635      7637      7649      7651      7635      7637      7649      7652
      7636      7635      7637      7638      7636      7635      7637      7639
      7636      7635      7637      7649      7637      7649      7652      7653
      7637      7649      7652      7654      7637      7649      7652      7655
      7638      7637      7649      7650      7638      7637      7649      7651
      7638      7637      7649      7652      7639      7637      7649      7650
      7639      7637      7649      7651      7639      7637      7649      7652
      7640      7643      7644      7645      7640      7643      7644      7646
      7641      7640      7643      7644      7642      7640      7643      7644
      7643      7644      7646      7647      7643      7644      7646      7648
      7643      7644      7646      7696      7644      7646      7696      7697
      7644      7646      7696      7698      7644      7646      7696      7699
      7645      7644      7646      7647      7645      7644      7646      7648
      7645      7644      7646      7696      7646      7696      7699      7700
      7646      7696      7699      7701      7646      7696      7699      7702
      7647      7646      7696      7697      7647      7646      7696      7698
      7647      7646      7696      7699      7648      7646      7696      7697
      7648      7646      7696      7698      7648      7646      7696      7699
      7649      7652      7655      7656      7649      7652      7655      7657
      7650      7649      7652      7653      7650      7649      7652      7654
      7650      7649      7652      7655      7651      7649      7652      7653
      7651      7649      7652      7654      7651      7649      7652      7655
      7652      7655      7657      7658      7652      7655      7657      7659
      7653      7652      7655      7656      7653      7652      7655      7657
      7654      7652      7655      7656      7654      7652      7655      7657
      7655      7657      7659      7660      7655      7657      7659      7661
      7655      7657      7659      7662      7656      7655      7657      7658
      7656      7655      7657      7659      7657      7659      7662      7663
      7657      7659      7662      7664      7658      7657      7659      7660
      7658      7657      7659      7661      7658      7657      7659      7662
      7659      7662      7664      7665      7659      7662      7664      7666
      7660      7659      7662      7663      7660      7659      7662      7664
      7661      7659      7662      7663      7661      7659      7662      7664
      7662      7664      7666      7667      7662      7664      7666      7668
      7662      7664      7666      7669      7663      7662      7664      7665
      7663      7662      7664      7666      7664      7666      7669      7670
      7664      7666      7669      7671      7665      7664      7666      7667
      7665      7664      7666      7668      7665      7664      7666      7669
      7666      7669      7671      7672      7666      7669      7671      7673
      7667      7666      7669      7670      7667      7666      7669      7671
      7668      7666      7669      7670      7668      7666      7669      7671
      7669      7671      7673      7674      7669      7671      7673      7675
      7669      7671      7673      7676      7670      7669      7671      7672
      7670      7669      7671      7673      7671      7673      7676      7677
      7671      7673      7676      7678      7672      7671      7673      7674
      7672      7671      7673      7675      7672      7671      7673      7676
      7673      7676      7678      7679      7673      7676      7678      7680
      7674      7673      7676      7677      7674      7673      7676      7678
      7675      7673      7676      7677      7675      7673      7676      7678
      7676      7678      7680      7681      7676      7678      7680      7682
      7676      7678      7680      7683      7677      7676      7678      7679
      7677      7676      7678      7680      7678      7680      7683      7684
      7678      7680      7683      7685      7678      7680      7683      7686
      7679      7678      7680      7681      7679      7678      7680      7682
      7679      7678      7680      7683      7680      7683      7686      7687
      7680      7683      7686      7688      7680      7683      7686      7689
      7681      7680      7683      7684      7681      7680      7683      7685
      7681      7680      7683      7686      7682      7680      7683      7684
      7682      7680      7683      7685      7682      7680      7683      7686
      7683      7686      7689      7690      7683      7686      7689      7691
      7683      7686      7689      7692      7684      7683      7686      7687
      7684      7683      7686      7688      7684      7683      7686      7689
      7685      7683      7686      7687      7685      7683      7686      7688
      7685      7683      7686      7689      7686      7689      7692      7693
      7686      7689      7692      7694      7686      7689      7692      7695
      7687      7686      7689      7690      7687      7686      7689      7691
      7687      7686      7689      7692      7688      7686      7689      7690
      7688      7686      7689      7691      7688      7686      7689      7692
      7690      7689      7692      7693      7690      7689      7692      7694
      7690      7689      7692      7695      7691      7689      7692      7693
      7691      7689      7692      7694      7691      7689      7692      7695
      7696      7699      7702      7703      7696      7699      7702      7704
      7696      7699      7702      7705      7697      7696      7699      7700
      7697      7696      7699      7701      7697      7696      7699      7702
      7698      7696      7699      7700      7698      7696      7699      7701
      7698      7696      7699      7702      7699      7702      7705      7706
      7699      7702      7705      7707      7699      7702      7705      7708
      7700      7699      7702      7703      7700      7699      7702      7704
      7700      7699      7702      7705      7701      7699      7702      7703
      7701      7699      7702      7704      7701      7699      7702      7705
      7702      7705      7708      7709      7702      7705      7708      7710
      7702      7705      7708      7711      7703      7702      7705      7706
      7703      7702      7705      7707      7703      7702      7705      7708
      7704      7702      7705      7706      7704      7702      7705      7707
      7704      7702      7705      7708      7705      7708      7711      7712
      7705      7708      7711      7713      7705      7708      7711      7714
      7706      7705      7708      7709      7706      7705      7708      7710
      7706      7705      7708      7711      7707      7705      7708      7709
      7707      7705      7708      7710      7707      7705      7708      7711
      7708      7711      7714      7715      7708      7711      7714      7716
      7708      7711      7714      7717      7709      7708      7711      7712
      7709      7708      7711      7713      7709      7708      7711      7714
      7710      7708      7711      7712      7710      7708      7711      7713
      7710      7708      7711      7714      7711      7714      7717      7718
      7711      7714      7717      7719      7711      7714      7717      7720
      7712      7711      7714      7715      7712      7711      7714      7716
      7712      7711      7714      7717      7713      7711      7714      7715
      7713      7711      7714      7716      7713      7711      7714      7717
      7714      7717      7720      7721      7714      7717      7720      7722
      7714      7717      7720      7723      7715      7714      7717      7718
      7715      7714      7717      7719      7715      7714      7717      7720
      7716      7714      7717      7718      7716      7714      7717      7719
      7716      7714      7717      7720      7717      7720      7723      7724
      7717      7720      7723      7725      7717      7720      7723      7726
      7718      7717      7720      7721      7718      7717      7720      7722
      7718      7717      7720      7723      7719      7717      7720      7721
      7719      7717      7720      7722      7719      7717      7720      7723
      7720      7723      7726      7727      7720      7723      7726      7728
      7720      7723      7726      7729      7721      7720      7723      7724
      7721      7720      7723      7725      7721      7720      7723      7726
      7722      7720      7723      7724      7722      7720      7723      7725
      7722      7720      7723      7726      7723      7726      7729      7730
      7723      7726      7729      7731      7723      7726      7729      7732
      7724      7723      7726      7727      7724      7723      7726      7728
      7724      7723      7726      7729      7725      7723      7726      7727
      7725      7723      7726      7728      7725      7723      7726      7729
      7726      7729      7732      7733      7726      7729      7732      7734
      7726      7729      7732      7735      7727      7726      7729      7730
      7727      7726      7729      7731      7727      7726      7729      7732
      7728      7726      7729      7730      7728      7726      7729      7731
      7728      7726      7729      7732      7729      7732      7735      7736
      7729      7732      7735      7737      7729      7732      7735      7738
      7730      7729      7732      7733      7730      7729      7732      7734
      7730      7729      7732      7735      7731      7729      7732      7733
      7731      7729      7732      7734      7731      7729      7732      7735
      7732      7735      7738      7739      7732      7735      7738      7740
      7732      7735      7738      7741      7733      7732      7735      7736
      7733      7732      7735      7737      7733      7732      7735      7738
      7734      7732      7735      7736      7734      7732      7735      7737
      7734      7732      7735      7738      7735      7738      7741      7742
      7735      7738      7741      7743      7735      7738      7741      7744
      7736      7735      7738      7739      7736      7735      7738      7740
      7736      7735      7738      7741      7737      7735      7738      7739
      7737      7735      7738      7740      7737      7735      7738      7741
      7739      7738      7741      7742      7739      7738      7741      7743
      7739      7738      7741      7744      7740      7738      7741      7742
      7740      7738      7741      7743      7740      7738      7741      7744
      7745      7749      7752      7753      7745      7749      7752      7754
      7745      7749      7752      7758      7746      7745      7749      7750
      7746      7745      7749      7751      7746      7745      7749      7752
      7747      7745      7749      7750      7747      7745      7749      7751
      7747      7745      7749      7752      7748      7745      7749      7750
      7748      7745      7749      7751      7748      7745      7749      7752
      7749      7752      7758      7755      7750      7749      7752      7753
      7750      7749      7752      7754      7750      7749      7752      7758
      7751      7749      7752      7753      7751      7749      7752      7754
      7751      7749      7752      7758      7752      7758      7755      7756
      7752      7758      7755      7757      7752      7758      7755      7759
      7753      7752      7758      7755      7754      7752      7758      7755
      7755      7759      7760      7761      7755      7759      7760      7762
      7755      7759      7760      7763      7756      7755      7759      7760
      7757      7755      7759      7760      7758      7755      7759      7760
      7759      7760      7763      7764      7759      7760      7763      7765
      7759      7760      7763      7771      7760      7763      7765      7766
      7760      7763      7771      7772      7760      7763      7771      7773
      7760      7763      7771      7774      7761      7760      7763      7764
      7761      7760      7763      7765      7761      7760      7763      7771
      7762      7760      7763      7764      7762      7760      7763      7765
      7762      7760      7763      7771      7763      7765      7766      7767
      7763      7765      7766      7768      7763      7771      7774      7775
      7764      7763      7765      7766      7764      7763      7771      7772
      7764      7763      7771      7773      7764      7763      7771      7774
      7765      7763      7771      7772      7765      7763      7771      7773
      7765      7763      7771      7774      7765      7766      7768      7769
      7765      7766      7768      7770      7765      7766      7768      7780
      7766      7765      7763      7771      7766      7768      7780      7781
      7766      7768      7780      7782      7766      7768      7780      7783
      7767      7766      7768      7769      7767      7766      7768      7770
      7767      7766      7768      7780      7768      7780      7783      7784
      7768      7780      7783      7785      7768      7780      7783      7786
      7769      7768      7780      7781      7769      7768      7780      7782
      7769      7768      7780      7783      7770      7768      7780      7781
      7770      7768      7780      7782      7770      7768      7780      7783
      7771      7774      7775      7776      7771      7774      7775      7777
      7772      7771      7774      7775      7773      7771      7774      7775
      7774      7775      7777      7778      7774      7775      7777      7779
      7774      7775      7777      7827      7775      7777      7827      7828
      7775      7777      7827      7829      7775      7777      7827      7830
      7776      7775      7777      7778      7776      7775      7777      7779
      7776      7775      7777      7827      7777      7827      7830      7831
      7777      7827      7830      7832      7777      7827      7830      7833
      7778      7777      7827      7828      7778      7777      7827      7829
      7778      7777      7827      7830      7779      7777      7827      7828
      7779      7777      7827      7829      7779      7777      7827      7830
      7780      7783      7786      7787      7780      7783      7786      7788
      7781      7780      7783      7784      7781      7780      7783      7785
      7781      7780      7783      7786      7782      7780      7783      7784
      7782      7780      7783      7785      7782      7780      7783      7786
      7783      7786      7788      7789      7783      7786      7788      7790
      7784      7783      7786      7787      7784      7783      7786      7788
      7785      7783      7786      7787      7785      7783      7786      7788
      7786      7788      7790      7791      7786      7788      7790      7792
      7786      7788      7790      7793      7787      7786      7788      7789
      7787      7786      7788      7790      7788      7790      7793      7794
      7788      7790      7793      7795      7789      7788      7790      7791
      7789      7788      7790      7792      7789      7788      7790      7793
      7790      7793      7795      7796      7790      7793      7795      7797
      7791      7790      7793      7794      7791      7790      7793      7795
      7792      7790      7793      7794      7792      7790      7793      7795
      7793      7795      7797      7798      7793      7795      7797      7799
      7793      7795      7797      7800      7794      7793      7795      7796
      7794      7793      7795      7797      7795      7797      7800      7801
      7795      7797      7800      7802      7796      7795      7797      7798
      7796      7795      7797      7799      7796      7795      7797      7800
      7797      7800      7802      7803      7797      7800      7802      7804
      7798      7797      7800      7801      7798      7797      7800      7802
      7799      7797      7800      7801      7799      7797      7800      7802
      7800      7802      7804      7805      7800      7802      7804      7806
      7800      7802      7804      7807      7801      7800      7802      7803
      7801      7800      7802      7804      7802      7804      7807      7808
      7802      7804      7807      7809      7803      7802      7804      7805
      7803      7802      7804      7806      7803      7802      7804      7807
      7804      7807      7809      7810      7804      7807      7809      7811
      7805      7804      7807      7808      7805      7804      7807      7809
      7806      7804      7807      7808      7806      7804      7807      7809
      7807      7809      7811      7812      7807      7809      7811      7813
      7807      7809      7811      7814      7808      7807      7809      7810
      7808      7807      7809      7811      7809      7811      7814      7815
      7809      7811      7814      7816      7809      7811      7814      7817
      7810      7809      7811      7812      7810      7809      7811      7813
      7810      7809      7811      7814      7811      7814      7817      7818
      7811      7814      7817      7819      7811      7814      7817      7820
      7812      7811      7814      7815      7812      7811      7814      7816
      7812      7811      7814      7817      7813      7811      7814      7815
      7813      7811      7814      7816      7813      7811      7814      7817
      7814      7817      7820      7821      7814      7817      7820      7822
      7814      7817      7820      7823      7815      7814      7817      7818
      7815      7814      7817      7819      7815      7814      7817      7820
      7816      7814      7817      7818      7816      7814      7817      7819
      7816      7814      7817      7820      7817      7820      7823      7824
      7817      7820      7823      7825      7817      7820      7823      7826
      7818      7817      7820      7821      7818      7817      7820      7822
      7818      7817      7820      7823      7819      7817      7820      7821
      7819      7817      7820      7822      7819      7817      7820      7823
      7821      7820      7823      7824      7821      7820      7823      7825
      7821      7820      7823      7826      7822      7820      7823      7824
      7822      7820      7823      7825      7822      7820      7823      7826
      7827      7830      7833      7834      7827      7830      7833      7835
      7827      7830      7833      7836      7828      7827      7830      7831
      7828      7827      7830      7832      7828      7827      7830      7833
      7829      7827      7830      7831      7829      7827      7830      7832
      7829      7827      7830      7833      7830      7833      7836      7837
      7830      7833      7836      7838      7830      7833      7836      7839
      7831      7830      7833      7834      7831      7830      7833      7835
      7831      7830      7833      7836      7832      7830      7833      7834
      7832      7830      7833      7835      7832      7830      7833      7836
      7833      7836      7839      7840      7833      7836      7839      7841
      7833      7836      7839      7842      7834      7833      7836      7837
      7834      7833      7836      7838      7834      7833      7836      7839
      7835      7833      7836      7837      7835      7833      7836      7838
      7835      7833      7836      7839      7836      7839      7842      7843
      7836      7839      7842      7844      7836      7839      7842      7845
      7837      7836      7839      7840      7837      7836      7839      7841
      7837      7836      7839      7842      7838      7836      7839      7840
      7838      7836      7839      7841      7838      7836      7839      7842
      7839      7842      7845      7846      7839      7842      7845      7847
      7839      7842      7845      7848      7840      7839      7842      7843
      7840      7839      7842      7844      7840      7839      7842      7845
      7841      7839      7842      7843      7841      7839      7842      7844
      7841      7839      7842      7845      7842      7845      7848      7849
      7842      7845      7848      7850      7842      7845      7848      7851
      7843      7842      7845      7846      7843      7842      7845      7847
      7843      7842      7845      7848      7844      7842      7845      7846
      7844      7842      7845      7847      7844      7842      7845      7848
      7845      7848      7851      7852      7845      7848      7851      7853
      7845      7848      7851      7854      7846      7845      7848      7849
      7846      7845      7848      7850      7846      7845      7848      7851
      7847      7845      7848      7849      7847      7845      7848      7850
      7847      7845      7848      7851      7848      7851      7854      7855
      7848      7851      7854      7856      7848      7851      7854      7857
      7849      7848      7851      7852      7849      7848      7851      7853
      7849      7848      7851      7854      7850      7848      7851      7852
      7850      7848      7851      7853      7850      7848      7851      7854
      7851      7854      7857      7858      7851      7854      7857      7859
      7851      7854      7857      7860      7852      7851      7854      7855
      7852      7851      7854      7856      7852      7851      7854      7857
      7853      7851      7854      7855      7853      7851      7854      7856
      7853      7851      7854      7857      7854      7857      7860      7861
      7854      7857      7860      7862      7854      7857      7860      7863
      7855      7854      7857      7858      7855      7854      7857      7859
      7855      7854      7857      7860      7856      7854      7857      7858
      7856      7854      7857      7859      7856      7854      7857      7860
      7857      7860      7863      7864      7857      7860      7863      7865
      7857      7860      7863      7866      7858      7857      7860      7861
      7858      7857      7860      7862      7858      7857      7860      7863
      7859      7857      7860      7861      7859      7857      7860      7862
      7859      7857      7860      7863      7860      7863      7866      7867
      7860      7863      7866      7868      7860      7863      7866      7869
      7861      7860      7863      7864      7861      7860      7863      7865
      7861      7860      7863      7866      7862      7860      7863      7864
      7862      7860      7863      7865      7862      7860      7863      7866
      7863      7866      7869      7870      7863      7866      7869      7871
      7863      7866      7869      7872      7864      7863      7866      7867
      7864      7863      7866      7868      7864      7863      7866      7869
      7865      7863      7866      7867      7865      7863      7866      7868
      7865      7863      7866      7869      7866      7869      7872      7873
      7866      7869      7872      7874      7866      7869      7872      7875
      7867      7866      7869      7870      7867      7866      7869      7871
      7867      7866      7869      7872      7868      7866      7869      7870
      7868      7866      7869      7871      7868      7866      7869      7872
      7870      7869      7872      7873      7870      7869      7872      7874
      7870      7869      7872      7875      7871      7869      7872      7873
      7871      7869      7872      7874      7871      7869      7872      7875
      7876      7880      7883      7884      7876      7880      7883      7885
      7876      7880      7883      7889      7877      7876      7880      7881
      7877      7876      7880      7882      7877      7876      7880      7883
      7878      7876      7880      7881      7878      7876      7880      7882
      7878      7876      7880      7883      7879      7876      7880      7881
      7879      7876      7880      7882      7879      7876      7880      7883
      7880      7883      7889      7886      7881      7880      7883      7884
      7881      7880      7883      7885      7881      7880      7883      7889
      7882      7880      7883      7884      7882      7880      7883      7885
      7882      7880      7883      7889      7883      7889      7886      7887
      7883      7889      7886      7888      7883      7889      7886      7890
      7884      7883      7889      7886      7885      7883      7889      7886
      7886      7890      7891      7892      7886      7890      7891      7893
      7886      7890      7891      7894      7887      7886      7890      7891
      7888      7886      7890      7891      7889      7886      7890      7891
      7890      7891      7894      7895      7890      7891      7894      7896
      7890      7891      7894      7902      7891      7894      7896      7897
      7891      7894      7902      7903      7891      7894      7902      7904
      7891      7894      7902      7905      7892      7891      7894      7895
      7892      7891      7894      7896      7892      7891      7894      7902
      7893      7891      7894      7895      7893      7891      7894      7896
      7893      7891      7894      7902      7894      7896      7897      7898
      7894      7896      7897      7899      7894      7902      7905      7906
      7895      7894      7896      7897      7895      7894      7902      7903
      7895      7894      7902      7904      7895      7894      7902      7905
      7896      7894      7902      7903      7896      7894      7902      7904
      7896      7894      7902      7905      7896      7897      7899      7900
      7896      7897      7899      7901      7896      7897      7899      7911
      7897      7896      7894      7902      7897      7899      7911      7912
      7897      7899      7911      7913      7897      7899      7911      7914
      7898      7897      7899      7900      7898      7897      7899      7901
      7898      7897      7899      7911      7899      7911      7914      7915
      7899      7911      7914      7916      7899      7911      7914      7917
      7900      7899      7911      7912      7900      7899      7911      7913
      7900      7899      7911      7914      7901      7899      7911      7912
      7901      7899      7911      7913      7901      7899      7911      7914
      7902      7905      7906      7907      7902      7905      7906      7908
      7903      7902      7905      7906      7904      7902      7905      7906
      7905      7906      7908      7909      7905      7906      7908      7910
      7905      7906      7908      7958      7906      7908      7958      7959
      7906      7908      7958      7960      7906      7908      7958      7961
      7907      7906      7908      7909      7907      7906      7908      7910
      7907      7906      7908      7958      7908      7958      7961      7962
      7908      7958      7961      7963      7908      7958      7961      7964
      7909      7908      7958      7959      7909      7908      7958      7960
      7909      7908      7958      7961      7910      7908      7958      7959
      7910      7908      7958      7960      7910      7908      7958      7961
      7911      7914      7917      7918      7911      7914      7917      7919
      7912      7911      7914      7915      7912      7911      7914      7916
      7912      7911      7914      7917      7913      7911      7914      7915
      7913      7911      7914      7916      7913      7911      7914      7917
      7914      7917      7919      7920      7914      7917      7919      7921
      7915      7914      7917      7918      7915      7914      7917      7919
      7916      7914      7917      7918      7916      7914      7917      7919
      7917      7919      7921      7922      7917      7919      7921      7923
      7917      7919      7921      7924      7918      7917      7919      7920
      7918      7917      7919      7921      7919      7921      7924      7925
      7919      7921      7924      7926      7920      7919      7921      7922
      7920      7919      7921      7923      7920      7919      7921      7924
      7921      7924      7926      7927      7921      7924      7926      7928
      7922      7921      7924      7925      7922      7921      7924      7926
      7923      7921      7924      7925      7923      7921      7924      7926
      7924      7926      7928      7929      7924      7926      7928      7930
      7924      7926      7928      7931      7925      7924      7926      7927
      7925      7924      7926      7928      7926      7928      7931      7932
      7926      7928      7931      7933      7927      7926      7928      7929
      7927      7926      7928      7930      7927      7926      7928      7931
      7928      7931      7933      7934      7928      7931      7933      7935
      7929      7928      7931      7932      7929      7928      7931      7933
      7930      7928      7931      7932      7930      7928      7931      7933
      7931      7933      7935      7936      7931      7933      7935      7937
      7931      7933      7935      7938      7932      7931      7933      7934
      7932      7931      7933      7935      7933      7935      7938      7939
      7933      7935      7938      7940      7934      7933      7935      7936
      7934      7933      7935      7937      7934      7933      7935      7938
      7935      7938      7940      7941      7935      7938      7940      7942
      7936      7935      7938      7939      7936      7935      7938      7940
      7937      7935      7938      7939      7937      7935      7938      7940
      7938      7940      7942      7943      7938      7940      7942      7944
      7938      7940      7942      7945      7939      7938      7940      7941
      7939      7938      7940      7942      7940      7942      7945      7946
      7940      7942      7945      7947      7940      7942      7945      7948
      7941      7940      7942      7943      7941      7940      7942      7944
      7941      7940      7942      7945      7942      7945      7948      7949
      7942      7945      7948      7950      7942      7945      7948      7951
      7943      7942      7945      7946      7943      7942      7945      7947
      7943      7942      7945      7948      7944      7942      7945      7946
      7944      7942      7945      7947      7944      7942      7945      7948
      7945      7948      7951      7952      7945      7948      7951      7953
      7945      7948      7951      7954      7946      7945      7948      7949
      7946      7945      7948      7950      7946      7945      7948      7951
      7947      7945      7948      7949      7947      7945      7948      7950
      7947      7945      7948      7951      7948      7951      7954      7955
      7948      7951      7954      7956      7948      7951      7954      7957
      7949      7948      7951      7952      7949      7948      7951      7953
      7949      7948      7951      7954      7950      7948      7951      7952
      7950      7948      7951      7953      7950      7948      7951      7954
      7952      7951      7954      7955      7952      7951      7954      7956
      7952      7951      7954      7957      7953      7951      7954      7955
      7953      7951      7954      7956      7953      7951      7954      7957
      7958      7961      7964      7965      7958      7961      7964      7966
      7958      7961      7964      7967      7959      7958      7961      7962
      7959      7958      7961      7963      7959      7958      7961      7964
      7960      7958      7961      7962      7960      7958      7961      7963
      7960      7958      7961      7964      7961      7964      7967      7968
      7961      7964      7967      7969      7961      7964      7967      7970
      7962      7961      7964      7965      7962      7961      7964      7966
      7962      7961      7964      7967      7963      7961      7964      7965
      7963      7961      7964      7966      7963      7961      7964      7967
      7964      7967      7970      7971      7964      7967      7970      7972
      7964      7967      7970      7973      7965      7964      7967      7968
      7965      7964      7967      7969      7965      7964      7967      7970
      7966      7964      7967      7968      7966      7964      7967      7969
      7966      7964      7967      7970      7967      7970      7973      7974
      7967      7970      7973      7975      7967      7970      7973      7976
      7968      7967      7970      7971      7968      7967      7970      7972
      7968      7967      7970      7973      7969      7967      7970      7971
      7969      7967      7970      7972      7969      7967      7970      7973
      7970      7973      7976      7977      7970      7973      7976      7978
      7970      7973      7976      7979      7971      7970      7973      7974
      7971      7970      7973      7975      7971      7970      7973      7976
      7972      7970      7973      7974      7972      7970      7973      7975
      7972      7970      7973      7976      7973      7976      7979      7980
      7973      7976      7979      7981      7973      7976      7979      7982
      7974      7973      7976      7977      7974      7973      7976      7978
      7974      7973      7976      7979      7975      7973      7976      7977
      7975      7973      7976      7978      7975      7973      7976      7979
      7976      7979      7982      7983      7976      7979      7982      7984
      7976      7979      7982      7985      7977      7976      7979      7980
      7977      7976      7979      7981      7977      7976      7979      7982
      7978      7976      7979      7980      7978      7976      7979      7981
      7978      7976      7979      7982      7979      7982      7985      7986
      7979      7982      7985      7987      7979      7982      7985      7988
      7980      7979      7982      7983      7980      7979      7982      7984
      7980      7979      7982      7985      7981      7979      7982      7983
      7981      7979      7982      7984      7981      7979      7982      7985
      7982      7985      7988      7989      7982      7985      7988      7990
      7982      7985      7988      7991      7983      7982      7985      7986
      7983      7982      7985      7987      7983      7982      7985      7988
      7984      7982      7985      7986      7984      7982      7985      7987
      7984      7982      7985      7988      7985      7988      7991      7992
      7985      7988      7991      7993      7985      7988      7991      7994
      7986      7985      7988      7989      7986      7985      7988      7990
      7986      7985      7988      7991      7987      7985      7988      7989
      7987      7985      7988      7990      7987      7985      7988      7991
      7988      7991      7994      7995      7988      7991      7994      7996
      7988      7991      7994      7997      7989      7988      7991      7992
      7989      7988      7991      7993      7989      7988      7991      7994
      7990      7988      7991      7992      7990      7988      7991      7993
      7990      7988      7991      7994      7991      7994      7997      7998
      7991      7994      7997      7999      7991      7994      7997      8000
      7992      7991      7994      7995      7992      7991      7994      7996
      7992      7991      7994      7997      7993      7991      7994      7995
      7993      7991      7994      7996      7993      7991      7994      7997
      7994      7997      8000      8001      7994      7997      8000      8002
      7994      7997      8000      8003      7995      7994      7997      7998
      7995      7994      7997      7999      7995      7994      7997      8000
      7996      7994      7997      7998      7996      7994      7997      7999
      7996      7994      7997      8000      7997      8000      8003      8004
      7997      8000      8003      8005      7997      8000      8003      8006
      7998      7997      8000      8001      7998      7997      8000      8002
      7998      7997      8000      8003      7999      7997      8000      8001
      7999      7997      8000      8002      7999      7997      8000      8003
      8001      8000      8003      8004      8001      8000      8003      8005
      8001      8000      8003      8006      8002      8000      8003      8004
      8002      8000      8003      8005      8002      8000      8003      8006
      8007      8011      8014      8015      8007      8011      8014      8045
      8007      8053      8050      8045      8007      8053      8050      8051
      8007      8053      8050      8052      8008      8007      8009      8010
      8008      8007      8011      8012      8008      8007      8011      8013
      8008      8007      8011      8014      8008      8007      8053      8050
      8008      8007      8053      8054      8008      8007      8053      8055
      8009      8007      8011      8012      8009      8007      8011      8013
      8009      8007      8011      8014      8009      8007      8053      8050
      8009      8007      8053      8054      8009      8007      8053      8055
      8010      8009      8007      8011      8010      8009      8007      8053
      8011      8007      8053      8050      8011      8007      8053      8054
      8011      8007      8053      8055      8011      8014      8015      8016
      8011      8014      8015      8017      8011      8014      8045      8043
      8011      8014      8045      8046      8011      8014      8045      8050
      8012      8011      8007      8053      8012      8011      8014      8015
      8012      8011      8014      8045      8013      8011      8007      8053
      8013      8011      8014      8015      8013      8011      8014      8045
      8014      8011      8007      8053      8014      8015      8017      8018
      8014      8015      8017      8019      8014      8015      8017      8020
      8014      8045      8043      8020      8014      8045      8043      8040
      8014      8045      8043      8044      8014      8045      8046      8047
      8014      8045      8046      8048      8014      8045      8046      8049
      8014      8045      8050      8051      8014      8045      8050      8052
      8014      8045      8050      8053      8015      8014      8045      8043
      8015      8014      8045      8046      8015      8014      8045      8050
      8015      8017      8020      8021      8015      8017      8020      8022
      8015      8017      8020      8043      8016      8015      8014      8045
      8016      8015      8017      8018      8016      8015      8017      8019
      8016      8015      8017      8020      8017      8015      8014      8045
      8017      8020      8022      8023      8017      8020      8022      8024
      8017      8020      8022      8032      8017      8020      8043      8040
      8017      8020      8043      8044      8017      8020      8043      8045
      8018      8017      8020      8021      8018      8017      8020      8022
      8018      8017      8020      8043      8019      8017      8020      8021
      8019      8017      8020      8022      8019      8017      8020      8043
      8020      8022      8024      8025      8020      8022      8024      8026
      8020      8022      8024      8027      8020      8022      8032      8030
      8020      8022      8032      8033      8020      8022      8032      8037
      8020      8043      8040      8037      8020      8043      8040      8041
      8020      8043      8040      8042      8020      8043      8045      8046
      8020      8043      8045      8050      8021      8020      8022      8023
      8021      8020      8022      8024      8021      8020      8022      8032
      8021      8020      8043      8040      8021      8020      8043      8044
      8021      8020      8043      8045      8022      8020      8043      8040
      8022      8020      8043      8044      8022      8020      8043      8045
      8022      8024      8027      8028      8022      8024      8027      8029
      8022      8024      8027      8030      8022      8032      8030      8027
      8022      8032      8030      8031      8022      8032      8030      8056
      8022      8032      8033      8034      8022      8032      8033      8035
      8022      8032      8033      8036      8022      8032      8037      8038
      8022      8032      8037      8039      8022      8032      8037      8040
      8023      8022      8020      8043      8023      8022      8024      8025
      8023      8022      8024      8026      8023      8022      8024      8027
      8023      8022      8032      8030      8023      8022      8032      8033
      8023      8022      8032      8037      8024      8022      8020      8043
      8024      8022      8032      8030      8024      8022      8032      8033
      8024      8022      8032      8037      8024      8027      8030      8031
      8024      8027      8030      8032      8024      8027      8030      8056
      8025      8024      8022      8032      8025      8024      8027      8028
      8025      8024      8027      8029      8025      8024      8027      8030
      8026      8024      8022      8032      8026      8024      8027      8028
      8026      8024      8027      8029      8026      8024      8027      8030
      8027      8024      8022      8032      8027      8030      8032      8033
      8027      8030      8032      8037      8027      8030      8056      8057
      8027      8030      8056      8058      8027      8030      8056      8062
      8028      8027      8030      8031      8028      8027      8030      8032
      8028      8027      8030      8056      8029      8027      8030      8031
      8029      8027      8030      8032      8029      8027      8030      8056
      8030      8032      8033      8034      8030      8032      8033      8035
      8030      8032      8033      8036      8030      8032      8037      8038
      8030      8032      8037      8039      8030      8032      8037      8040
      8030      8056      8058      8059      8030      8056      8058      8060
      8030      8056      8058      8061      8030      8056      8062      8063
      8030      8056      8062      8064      8030      8056      8062      8065
      8031      8030      8032      8033      8031      8030      8032      8037
      8031      8030      8056      8057      8031      8030      8056      8058
      8031      8030      8056      8062      8032      8022      8020      8043
      8032      8030      8056      8057      8032      8030      8056      8058
      8032      8030      8056      8062      8032      8037      8040      8041
      8032      8037      8040      8042      8032      8037      8040      8043
      8033      8032      8030      8056      8033      8032      8037      8038
      8033      8032      8037      8039      8033      8032      8037      8040
      8034      8033      8032      8037      8035      8033      8032      8037
      8036      8033      8032      8037      8037      8032      8030      8056
      8037      8040      8043      8044      8037      8040      8043      8045
      8038      8037      8040      8041      8038      8037      8040      8042
      8038      8037      8040      8043      8039      8037      8040      8041
      8039      8037      8040      8042      8039      8037      8040      8043
      8040      8043      8045      8046      8040      8043      8045      8050
      8041      8040      8043      8044      8041      8040      8043      8045
      8042      8040      8043      8044      8042      8040      8043      8045
      8043      8045      8046      8047      8043      8045      8046      8048
      8043      8045      8046      8049      8043      8045      8050      8051
      8043      8045      8050      8052      8043      8045      8050      8053
      8044      8043      8045      8046      8044      8043      8045      8050
      8045      8050      8053      8054      8045      8050      8053      8055
      8046      8045      8050      8051      8046      8045      8050      8052
      8046      8045      8050      8053      8047      8046      8045      8050
      8048      8046      8045      8050      8049      8046      8045      8050
      8051      8050      8053      8054      8051      8050      8053      8055
      8052      8050      8053      8054      8052      8050      8053      8055
      8056      8062      8065      8066      8056      8062      8065      8067
      8056      8062      8065      8068      8057      8056      8058      8059
      8057      8056      8058      8060      8057      8056      8058      8061
      8057      8056      8062      8063      8057      8056      8062      8064
      8057      8056      8062      8065      8058      8056      8062      8063
      8058      8056      8062      8064      8058      8056      8062      8065
      8059      8058      8056      8062      8060      8058      8056      8062
      8061      8058      8056      8062      8062      8065      8068      8069
      8062      8065      8068      8070      8062      8065      8068      8071
      8063      8062      8065      8066      8063      8062      8065      8067
      8063      8062      8065      8068      8064      8062      8065      8066
      8064      8062      8065      8067      8064      8062      8065      8068
      8065      8068      8071      8072      8065      8068      8071      8073
      8065      8068      8071      8077      8066      8065      8068      8069
      8066      8065      8068      8070      8066      8065      8068      8071
      8067      8065      8068      8069      8067      8065      8068      8070
      8067      8065      8068      8071      8068      8071      8073      8074
      8068      8071      8073      8075      8068      8071      8073      8076
      8068      8071      8077      8078      8068      8071      8077      8079
      8068      8071      8077      8080      8069      8068      8071      8072
      8069      8068      8071      8073      8069      8068      8071      8077
      8070      8068      8071      8072      8070      8068      8071      8073
      8070      8068      8071      8077      8072      8071      8073      8074
      8072      8071      8073      8075      8072      8071      8073      8076
      8072      8071      8077      8078      8072      8071      8077      8079
      8072      8071      8077      8080      8073      8071      8077      8078
      8073      8071      8077      8079      8073      8071      8077      8080
      8074      8073      8071      8077      8075      8073      8071      8077
      8076      8073      8071      8077      8081      8085      8087      8088
      8081      8085      8089      8090      8081      8085      8089      8091
      8081      8085      8089      8093      8081      8101      8097      8093
      8081      8101      8097      8098      8081      8101      8097      8099
      8081      8101      8106      8103      8082      8081      8083      8084
      8082      8081      8085      8086      8082      8081      8085      8087
      8082      8081      8085      8089      8082      8081      8101      8097
      8082      8081      8101      8102      8082      8081      8101      8106
      8083      8081      8085      8086      8083      8081      8085      8087
      8083      8081      8085      8089      8083      8081      8101      8097
      8083      8081      8101      8102      8083      8081      8101      8106
      8084      8083      8081      8085      8084      8083      8081      8101
      8085      8081      8101      8097      8085      8081      8101      8102
      8085      8081      8101      8106      8085      8089      8091      8092
      8085      8089      8093      8094      8085      8089      8093      8095
      8085      8089      8093      8097      8086      8085      8081      8101
      8086      8085      8087      8088      8086      8085      8089      8090
      8086      8085      8089      8091      8086      8085      8089      8093
      8087      8085      8081      8101      8087      8085      8089      8090
      8087      8085      8089      8091      8087      8085      8089      8093
      8088      8087      8085      8089      8089      8085      8081      8101
      8089      8093      8095      8096      8089      8093      8097      8098
      8089      8093      8097      8099      8089      8093      8097      8101
      8090      8089      8091      8092      8090      8089      8093      8094
      8090      8089      8093      8095      8090      8089      8093      8097
      8091      8089      8093      8094      8091      8089      8093      8095
      8091      8089      8093      8097      8092      8091      8089      8093
      8093      8097      8099      8100      8093      8097      8101      8102
      8093      8097      8101      8106      8094      8093      8095      8096
      8094      8093      8097      8098      8094      8093      8097      8099
      8094      8093      8097      8101      8095      8093      8097      8098
      8095      8093      8097      8099      8095      8093      8097      8101
      8096      8095      8093      8097      8097      8101      8106      8103
      8098      8097      8099      8100      8098      8097      8101      8102
      8098      8097      8101      8106      8099      8097      8101      8102
      8099      8097      8101      8106      8100      8099      8097      8101
      8101      8106      8103      8104      8101      8106      8103      8105
      8101      8106      8103      8107      8102      8101      8106      8103
      8103      8107      8108      8109      8103      8107      8108      8110
      8103      8107      8108      8111      8104      8103      8107      8108
      8105      8103      8107      8108      8106      8103      8107      8108
      8107      8108      8111      8112      8107      8108      8111      8113
      8107      8108      8111      8119      8108      8111      8113      8114
      8108      8111      8119      8120      8108      8111      8119      8121
      8108      8111      8119      8122      8109      8108      8111      8112
      8109      8108      8111      8113      8109      8108      8111      8119
      8110      8108      8111      8112      8110      8108      8111      8113
      8110      8108      8111      8119      8111      8113      8114      8115
      8111      8113      8114      8116      8111      8119      8122      8123
      8112      8111      8113      8114      8112      8111      8119      8120
      8112      8111      8119      8121      8112      8111      8119      8122
      8113      8111      8119      8120      8113      8111      8119      8121
      8113      8111      8119      8122      8113      8114      8116      8117
      8113      8114      8116      8118      8113      8114      8116      8128
      8114      8113      8111      8119      8114      8116      8128      8129
      8114      8116      8128      8130      8114      8116      8128      8131
      8115      8114      8116      8117      8115      8114      8116      8118
      8115      8114      8116      8128      8116      8128      8131      8132
      8116      8128      8131      8133      8116      8128      8131      8134
      8117      8116      8128      8129      8117      8116      8128      8130
      8117      8116      8128      8131      8118      8116      8128      8129
      8118      8116      8128      8130      8118      8116      8128      8131
      8119      8122      8123      8124      8119      8122      8123      8125
      8120      8119      8122      8123      8121      8119      8122      8123
      8122      8123      8125      8126      8122      8123      8125      8127
      8122      8123      8125      8175      8123      8125      8175      8176
      8123      8125      8175      8177      8123      8125      8175      8178
      8124      8123      8125      8126      8124      8123      8125      8127
      8124      8123      8125      8175      8125      8175      8178      8179
      8125      8175      8178      8180      8125      8175      8178      8181
      8126      8125      8175      8176      8126      8125      8175      8177
      8126      8125      8175      8178      8127      8125      8175      8176
      8127      8125      8175      8177      8127      8125      8175      8178
      8128      8131      8134      8135      8128      8131      8134      8136
      8129      8128      8131      8132      8129      8128      8131      8133
      8129      8128      8131      8134      8130      8128      8131      8132
      8130      8128      8131      8133      8130      8128      8131      8134
      8131      8134      8136      8137      8131      8134      8136      8138
      8132      8131      8134      8135      8132      8131      8134      8136
      8133      8131      8134      8135      8133      8131      8134      8136
      8134      8136      8138      8139      8134      8136      8138      8140
      8134      8136      8138      8141      8135      8134      8136      8137
      8135      8134      8136      8138      8136      8138      8141      8142
      8136      8138      8141      8143      8137      8136      8138      8139
      8137      8136      8138      8140      8137      8136      8138      8141
      8138      8141      8143      8144      8138      8141      8143      8145
      8139      8138      8141      8142      8139      8138      8141      8143
      8140      8138      8141      8142      8140      8138      8141      8143
      8141      8143      8145      8146      8141      8143      8145      8147
      8141      8143      8145      8148      8142      8141      8143      8144
      8142      8141      8143      8145      8143      8145      8148      8149
      8143      8145      8148      8150      8144      8143      8145      8146
      8144      8143      8145      8147      8144      8143      8145      8148
      8145      8148      8150      8151      8145      8148      8150      8152
      8146      8145      8148      8149      8146      8145      8148      8150
      8147      8145      8148      8149      8147      8145      8148      8150
      8148      8150      8152      8153      8148      8150      8152      8154
      8148      8150      8152      8155      8149      8148      8150      8151
      8149      8148      8150      8152      8150      8152      8155      8156
      8150      8152      8155      8157      8151      8150      8152      8153
      8151      8150      8152      8154      8151      8150      8152      8155
      8152      8155      8157      8158      8152      8155      8157      8159
      8153      8152      8155      8156      8153      8152      8155      8157
      8154      8152      8155      8156      8154      8152      8155      8157
      8155      8157      8159      8160      8155      8157      8159      8161
      8155      8157      8159      8162      8156      8155      8157      8158
      8156      8155      8157      8159      8157      8159      8162      8163
      8157      8159      8162      8164      8157      8159      8162      8165
      8158      8157      8159      8160      8158      8157      8159      8161
      8158      8157      8159      8162      8159      8162      8165      8166
      8159      8162      8165      8167      8159      8162      8165      8168
      8160      8159      8162      8163      8160      8159      8162      8164
      8160      8159      8162      8165      8161      8159      8162      8163
      8161      8159      8162      8164      8161      8159      8162      8165
      8162      8165      8168      8169      8162      8165      8168      8170
      8162      8165      8168      8171      8163      8162      8165      8166
      8163      8162      8165      8167      8163      8162      8165      8168
      8164      8162      8165      8166      8164      8162      8165      8167
      8164      8162      8165      8168      8165      8168      8171      8172
      8165      8168      8171      8173      8165      8168      8171      8174
      8166      8165      8168      8169      8166      8165      8168      8170
      8166      8165      8168      8171      8167      8165      8168      8169
      8167      8165      8168      8170      8167      8165      8168      8171
      8169      8168      8171      8172      8169      8168      8171      8173
      8169      8168      8171      8174      8170      8168      8171      8172
      8170      8168      8171      8173      8170      8168      8171      8174
      8175      8178      8181      8182      8175      8178      8181      8183
      8175      8178      8181      8184      8176      8175      8178      8179
      8176      8175      8178      8180      8176      8175      8178      8181
      8177      8175      8178      8179      8177      8175      8178      8180
      8177      8175      8178      8181      8178      8181      8184      8185
      8178      8181      8184      8186      8178      8181      8184      8187
      8179      8178      8181      8182      8179      8178      8181      8183
      8179      8178      8181      8184      8180      8178      8181      8182
      8180      8178      8181      8183      8180      8178      8181      8184
      8181      8184      8187      8188      8181      8184      8187      8189
      8181      8184      8187      8190      8182      8181      8184      8185
      8182      8181      8184      8186      8182      8181      8184      8187
      8183      8181      8184      8185      8183      8181      8184      8186
      8183      8181      8184      8187      8184      8187      8190      8191
      8184      8187      8190      8192      8184      8187      8190      8193
      8185      8184      8187      8188      8185      8184      8187      8189
      8185      8184      8187      8190      8186      8184      8187      8188
      8186      8184      8187      8189      8186      8184      8187      8190
      8187      8190      8193      8194      8187      8190      8193      8195
      8187      8190      8193      8196      8188      8187      8190      8191
      8188      8187      8190      8192      8188      8187      8190      8193
      8189      8187      8190      8191      8189      8187      8190      8192
      8189      8187      8190      8193      8190      8193      8196      8197
      8190      8193      8196      8198      8190      8193      8196      8199
      8191      8190      8193      8194      8191      8190      8193      8195
      8191      8190      8193      8196      8192      8190      8193      8194
      8192      8190      8193      8195      8192      8190      8193      8196
      8193      8196      8199      8200      8193      8196      8199      8201
      8193      8196      8199      8202      8194      8193      8196      8197
      8194      8193      8196      8198      8194      8193      8196      8199
      8195      8193      8196      8197      8195      8193      8196      8198
      8195      8193      8196      8199      8196      8199      8202      8203
      8196      8199      8202      8204      8196      8199      8202      8205
      8197      8196      8199      8200      8197      8196      8199      8201
      8197      8196      8199      8202      8198      8196      8199      8200
      8198      8196      8199      8201      8198      8196      8199      8202
      8199      8202      8205      8206      8199      8202      8205      8207
      8199      8202      8205      8208      8200      8199      8202      8203
      8200      8199      8202      8204      8200      8199      8202      8205
      8201      8199      8202      8203      8201      8199      8202      8204
      8201      8199      8202      8205      8202      8205      8208      8209
      8202      8205      8208      8210      8202      8205      8208      8211
      8203      8202      8205      8206      8203      8202      8205      8207
      8203      8202      8205      8208      8204      8202      8205      8206
      8204      8202      8205      8207      8204      8202      8205      8208
      8205      8208      8211      8212      8205      8208      8211      8213
      8205      8208      8211      8214      8206      8205      8208      8209
      8206      8205      8208      8210      8206      8205      8208      8211
      8207      8205      8208      8209      8207      8205      8208      8210
      8207      8205      8208      8211      8208      8211      8214      8215
      8208      8211      8214      8216      8208      8211      8214      8217
      8209      8208      8211      8212      8209      8208      8211      8213
      8209      8208      8211      8214      8210      8208      8211      8212
      8210      8208      8211      8213      8210      8208      8211      8214
      8211      8214      8217      8218      8211      8214      8217      8219
      8211      8214      8217      8220      8212      8211      8214      8215
      8212      8211      8214      8216      8212      8211      8214      8217
      8213      8211      8214      8215      8213      8211      8214      8216
      8213      8211      8214      8217      8214      8217      8220      8221
      8214      8217      8220      8222      8214      8217      8220      8223
      8215      8214      8217      8218      8215      8214      8217      8219
      8215      8214      8217      8220      8216      8214      8217      8218
      8216      8214      8217      8219      8216      8214      8217      8220
      8218      8217      8220      8221      8218      8217      8220      8222
      8218      8217      8220      8223      8219      8217      8220      8221
      8219      8217      8220      8222      8219      8217      8220      8223
      8224      8237      8240      8241      8224      8237      8240      8242
      8224      8237      8240      8247      8225      8224      8229      8230
      8225      8224      8229      8231      8225      8224      8229      8232
      8225      8224      8233      8234      8225      8224      8233      8235
      8225      8224      8233      8236      8225      8224      8237      8238
      8225      8224      8237      8239      8225      8224      8237      8240
      8226      8225      8224      8229      8226      8225      8224      8233
      8226      8225      8224      8237      8227      8225      8224      8229
      8227      8225      8224      8233      8227      8225      8224      8237
      8228      8225      8224      8229      8228      8225      8224      8233
      8228      8225      8224      8237      8229      8224      8233      8234
      8229      8224      8233      8235      8229      8224      8233      8236
      8229      8224      8237      8238      8229      8224      8237      8239
      8229      8224      8237      8240      8230      8229      8224      8233
      8230      8229      8224      8237      8231      8229      8224      8233
      8231      8229      8224      8237      8232      8229      8224      8233
      8232      8229      8224      8237      8233      8224      8237      8238
      8233      8224      8237      8239      8233      8224      8237      8240
      8234      8233      8224      8237      8235      8233      8224      8237
      8236      8233      8224      8237      8237      8240      8247      8243
      8238      8237      8240      8241      8238      8237      8240      8242
      8238      8237      8240      8247      8239      8237      8240      8241
      8239      8237      8240      8242      8239      8237      8240      8247
      8240      8247      8243      8244      8240      8247      8243      8245
      8240      8247      8243      8246      8241      8240      8247      8243
      8242      8240      8247      8243      8243      8246      8248      8249
      8243      8246      8248      8250      8243      8246      8248      8253
      8244      8243      8246      8248      8245      8243      8246      8248
      8246      8248      8253      8251      8246      8248      8253      8254
      8246      8248      8253      8255      8247      8243      8246      8248
      8248      8253      8251      8252      8248      8253      8251      8303
      8248      8253      8255      8256      8248      8253      8255      8257
      8248      8253      8255      8259      8249      8248      8253      8251
      8249      8248      8253      8254      8249      8248      8253      8255
      8250      8248      8253      8251      8250      8248      8253      8254
      8250      8248      8253      8255      8251      8253      8255      8256
      8251      8253      8255      8257      8251      8253      8255      8259
      8251      8303      8305      8306      8251      8303      8305      8307
      8251      8303      8305      8308      8252      8251      8253      8254
      8252      8251      8253      8255      8252      8251      8303      8304
      8252      8251      8303      8305      8253      8251      8303      8304
      8253      8251      8303      8305      8253      8255      8257      8258
      8253      8255      8259      8260      8253      8255      8259      8261
      8254      8253      8251      8303      8254      8253      8255      8256
      8254      8253      8255      8257      8254      8253      8255      8259
      8255      8253      8251      8303      8255      8259      8261      8262
      8255      8259      8261      8263      8256      8255      8257      8258
      8256      8255      8259      8260      8256      8255      8259      8261
      8257      8255      8259      8260      8257      8255      8259      8261
      8258      8257      8255      8259      8259      8261      8263      8264
      8259      8261      8263      8265      8259      8261      8263      8266
      8260      8259      8261      8262      8260      8259      8261      8263
      8261      8263      8266      8267      8261      8263      8266      8268
      8261      8263      8266      8269      8262      8261      8263      8264
      8262      8261      8263      8265      8262      8261      8263      8266
      8263      8266      8269      8270      8263      8266      8269      8271
      8263      8266      8269      8272      8264      8263      8266      8267
      8264      8263      8266      8268      8264      8263      8266      8269
      8265      8263      8266      8267      8265      8263      8266      8268
      8265      8263      8266      8269      8266      8269      8272      8273
      8266      8269      8272      8274      8266      8269      8272      8275
      8267      8266      8269      8270      8267      8266      8269      8271
      8267      8266      8269      8272      8268      8266      8269      8270
      8268      8266      8269      8271      8268      8266      8269      8272
      8269      8272      8275      8276      8269      8272      8275      8277
      8269      8272      8275      8278      8270      8269      8272      8273
      8270      8269      8272      8274      8270      8269      8272      8275
      8271      8269      8272      8273      8271      8269      8272      8274
      8271      8269      8272      8275      8272      8275      8278      8279
      8272      8275      8278      8280      8272      8275      8278      8281
      8273      8272      8275      8276      8273      8272      8275      8277
      8273      8272      8275      8278      8274      8272      8275      8276
      8274      8272      8275      8277      8274      8272      8275      8278
      8275      8278      8281      8282      8275      8278      8281      8283
      8275      8278      8281      8284      8276      8275      8278      8279
      8276      8275      8278      8280      8276      8275      8278      8281
      8277      8275      8278      8279      8277      8275      8278      8280
      8277      8275      8278      8281      8278      8281      8284      8285
      8278      8281      8284      8286      8278      8281      8284      8287
      8279      8278      8281      8282      8279      8278      8281      8283
      8279      8278      8281      8284      8280      8278      8281      8282
      8280      8278      8281      8283      8280      8278      8281      8284
      8281      8284      8287      8288      8281      8284      8287      8289
      8281      8284      8287      8290      8282      8281      8284      8285
      8282      8281      8284      8286      8282      8281      8284      8287
      8283      8281      8284      8285      8283      8281      8284      8286
      8283      8281      8284      8287      8284      8287      8290      8291
      8284      8287      8290      8292      8284      8287      8290      8293
      8285      8284      8287      8288      8285      8284      8287      8289
      8285      8284      8287      8290      8286      8284      8287      8288
      8286      8284      8287      8289      8286      8284      8287      8290
      8287      8290      8293      8294      8287      8290      8293      8295
      8287      8290      8293      8296      8288      8287      8290      8291
      8288      8287      8290      8292      8288      8287      8290      8293
      8289      8287      8290      8291      8289      8287      8290      8292
      8289      8287      8290      8293      8290      8293      8296      8297
      8290      8293      8296      8298      8290      8293      8296      8299
      8291      8290      8293      8294      8291      8290      8293      8295
      8291      8290      8293      8296      8292      8290      8293      8294
      8292      8290      8293      8295      8292      8290      8293      8296
      8293      8296      8299      8300      8293      8296      8299      8301
      8293      8296      8299      8302      8294      8293      8296      8297
      8294      8293      8296      8298      8294      8293      8296      8299
      8295      8293      8296      8297      8295      8293      8296      8298
      8295      8293      8296      8299      8297      8296      8299      8300
      8297      8296      8299      8301      8297      8296      8299      8302
      8298      8296      8299      8300      8298      8296      8299      8301
      8298      8296      8299      8302      8303      8305      8308      8309
      8303      8305      8308      8310      8303      8305      8308      8311
      8304      8303      8305      8306      8304      8303      8305      8307
      8304      8303      8305      8308      8305      8308      8311      8312
      8305      8308      8311      8313      8305      8308      8311      8314
      8306      8305      8308      8309      8306      8305      8308      8310
      8306      8305      8308      8311      8307      8305      8308      8309
      8307      8305      8308      8310      8307      8305      8308      8311
      8308      8311      8314      8315      8308      8311      8314      8316
      8308      8311      8314      8317      8309      8308      8311      8312
      8309      8308      8311      8313      8309      8308      8311      8314
      8310      8308      8311      8312      8310      8308      8311      8313
      8310      8308      8311      8314      8311      8314      8317      8318
      8311      8314      8317      8319      8311      8314      8317      8320
      8312      8311      8314      8315      8312      8311      8314      8316
      8312      8311      8314      8317      8313      8311      8314      8315
      8313      8311      8314      8316      8313      8311      8314      8317
      8314      8317      8320      8321      8314      8317      8320      8322
      8314      8317      8320      8323      8315      8314      8317      8318
      8315      8314      8317      8319      8315      8314      8317      8320
      8316      8314      8317      8318      8316      8314      8317      8319
      8316      8314      8317      8320      8317      8320      8323      8324
      8317      8320      8323      8325      8317      8320      8323      8326
      8318      8317      8320      8321      8318      8317      8320      8322
      8318      8317      8320      8323      8319      8317      8320      8321
      8319      8317      8320      8322      8319      8317      8320      8323
      8320      8323      8326      8327      8320      8323      8326      8328
      8321      8320      8323      8324      8321      8320      8323      8325
      8321      8320      8323      8326      8322      8320      8323      8324
      8322      8320      8323      8325      8322      8320      8323      8326
      8323      8326      8328      8329      8323      8326      8328      8330
      8324      8323      8326      8327      8324      8323      8326      8328
      8325      8323      8326      8327      8325      8323      8326      8328
      8326      8328      8330      8331      8326      8328      8330      8332
      8326      8328      8330      8333      8327      8326      8328      8329
      8327      8326      8328      8330      8328      8330      8333      8334
      8328      8330      8333      8335      8328      8330      8333      8336
      8329      8328      8330      8331      8329      8328      8330      8332
      8329      8328      8330      8333      8330      8333      8336      8337
      8330      8333      8336      8338      8330      8333      8336      8339
      8331      8330      8333      8334      8331      8330      8333      8335
      8331      8330      8333      8336      8332      8330      8333      8334
      8332      8330      8333      8335      8332      8330      8333      8336
      8333      8336      8339      8340      8333      8336      8339      8341
      8333      8336      8339      8342      8334      8333      8336      8337
      8334      8333      8336      8338      8334      8333      8336      8339
      8335      8333      8336      8337      8335      8333      8336      8338
      8335      8333      8336      8339      8336      8339      8342      8343
      8336      8339      8342      8344      8336      8339      8342      8345
      8337      8336      8339      8340      8337      8336      8339      8341
      8337      8336      8339      8342      8338      8336      8339      8340
      8338      8336      8339      8341      8338      8336      8339      8342
      8339      8342      8345      8346      8339      8342      8345      8347
      8339      8342      8345      8348      8340      8339      8342      8343
      8340      8339      8342      8344      8340      8339      8342      8345
      8341      8339      8342      8343      8341      8339      8342      8344
      8341      8339      8342      8345      8342      8345      8348      8349
      8342      8345      8348      8350      8342      8345      8348      8351
      8343      8342      8345      8346      8343      8342      8345      8347
      8343      8342      8345      8348      8344      8342      8345      8346
      8344      8342      8345      8347      8344      8342      8345      8348
      8345      8348      8351      8352      8345      8348      8351      8353
      8345      8348      8351      8354      8346      8345      8348      8349
      8346      8345      8348      8350      8346      8345      8348      8351
      8347      8345      8348      8349      8347      8345      8348      8350
      8347      8345      8348      8351      8349      8348      8351      8352
      8349      8348      8351      8353      8349      8348      8351      8354
      8350      8348      8351      8352      8350      8348      8351      8353
      8350      8348      8351      8354      8355      8359      8362      8363
      8355      8359      8362      8364      8355      8359      8362      8368
      8356      8355      8359      8360      8356      8355      8359      8361
      8356      8355      8359      8362      8357      8355      8359      8360
      8357      8355      8359      8361      8357      8355      8359      8362
      8358      8355      8359      8360      8358      8355      8359      8361
      8358      8355      8359      8362      8359      8362      8368      8365
      8360      8359      8362      8363      8360      8359      8362      8364
      8360      8359      8362      8368      8361      8359      8362      8363
      8361      8359      8362      8364      8361      8359      8362      8368
      8362      8368      8365      8366      8362      8368      8365      8367
      8362      8368      8365      8369      8363      8362      8368      8365
      8364      8362      8368      8365      8365      8369      8370      8371
      8365      8369      8370      8372      8365      8369      8370      8373
      8366      8365      8369      8370      8367      8365      8369      8370
      8368      8365      8369      8370      8369      8370      8373      8374
      8369      8370      8373      8375      8369      8370      8373      8381
      8370      8373      8375      8376      8370      8373      8381      8382
      8370      8373      8381      8383      8370      8373      8381      8384
      8371      8370      8373      8374      8371      8370      8373      8375
      8371      8370      8373      8381      8372      8370      8373      8374
      8372      8370      8373      8375      8372      8370      8373      8381
      8373      8375      8376      8377      8373      8375      8376      8378
      8373      8381      8384      8385      8374      8373      8375      8376
      8374      8373      8381      8382      8374      8373      8381      8383
      8374      8373      8381      8384      8375      8373      8381      8382
      8375      8373      8381      8383      8375      8373      8381      8384
      8375      8376      8378      8379      8375      8376      8378      8380
      8375      8376      8378      8390      8376      8375      8373      8381
      8376      8378      8390      8391      8376      8378      8390      8392
      8376      8378      8390      8393      8377      8376      8378      8379
      8377      8376      8378      8380      8377      8376      8378      8390
      8378      8390      8393      8394      8378      8390      8393      8395
      8378      8390      8393      8396      8379      8378      8390      8391
      8379      8378      8390      8392      8379      8378      8390      8393
      8380      8378      8390      8391      8380      8378      8390      8392
      8380      8378      8390      8393      8381      8384      8385      8386
      8381      8384      8385      8387      8382      8381      8384      8385
      8383      8381      8384      8385      8384      8385      8387      8388
      8384      8385      8387      8389      8384      8385      8387      8437
      8385      8387      8437      8438      8385      8387      8437      8439
      8385      8387      8437      8440      8386      8385      8387      8388
      8386      8385      8387      8389      8386      8385      8387      8437
      8387      8437      8440      8441      8387      8437      8440      8442
      8387      8437      8440      8443      8388      8387      8437      8438
      8388      8387      8437      8439      8388      8387      8437      8440
      8389      8387      8437      8438      8389      8387      8437      8439
      8389      8387      8437      8440      8390      8393      8396      8397
      8390      8393      8396      8398      8390      8393      8396      8399
      8391      8390      8393      8394      8391      8390      8393      8395
      8391      8390      8393      8396      8392      8390      8393      8394
      8392      8390      8393      8395      8392      8390      8393      8396
      8393      8396      8399      8400      8393      8396      8399      8401
      8393      8396      8399      8402      8394      8393      8396      8397
      8394      8393      8396      8398      8394      8393      8396      8399
      8395      8393      8396      8397      8395      8393      8396      8398
      8395      8393      8396      8399      8396      8399      8402      8403
      8396      8399      8402      8404      8396      8399      8402      8405
      8397      8396      8399      8400      8397      8396      8399      8401
      8397      8396      8399      8402      8398      8396      8399      8400
      8398      8396      8399      8401      8398      8396      8399      8402
      8399      8402      8405      8406      8399      8402      8405      8407
      8399      8402      8405      8408      8400      8399      8402      8403
      8400      8399      8402      8404      8400      8399      8402      8405
      8401      8399      8402      8403      8401      8399      8402      8404
      8401      8399      8402      8405      8402      8405      8408      8409
      8402      8405      8408      8410      8403      8402      8405      8406
      8403      8402      8405      8407      8403      8402      8405      8408
      8404      8402      8405      8406      8404      8402      8405      8407
      8404      8402      8405      8408      8405      8408      8410      8411
      8405      8408      8410      8412      8406      8405      8408      8409
      8406      8405      8408      8410      8407      8405      8408      8409
      8407      8405      8408      8410      8408      8410      8412      8413
      8408      8410      8412      8414      8408      8410      8412      8415
      8409      8408      8410      8411      8409      8408      8410      8412
      8410      8412      8415      8416      8410      8412      8415      8417
      8410      8412      8415      8418      8411      8410      8412      8413
      8411      8410      8412      8414      8411      8410      8412      8415
      8412      8415      8418      8419      8412      8415      8418      8420
      8412      8415      8418      8421      8413      8412      8415      8416
      8413      8412      8415      8417      8413      8412      8415      8418
      8414      8412      8415      8416      8414      8412      8415      8417
      8414      8412      8415      8418      8415      8418      8421      8422
      8415      8418      8421      8423      8415      8418      8421      8424
      8416      8415      8418      8419      8416      8415      8418      8420
      8416      8415      8418      8421      8417      8415      8418      8419
      8417      8415      8418      8420      8417      8415      8418      8421
      8418      8421      8424      8425      8418      8421      8424      8426
      8418      8421      8424      8427      8419      8418      8421      8422
      8419      8418      8421      8423      8419      8418      8421      8424
      8420      8418      8421      8422      8420      8418      8421      8423
      8420      8418      8421      8424      8421      8424      8427      8428
      8421      8424      8427      8429      8421      8424      8427      8430
      8422      8421      8424      8425      8422      8421      8424      8426
      8422      8421      8424      8427      8423      8421      8424      8425
      8423      8421      8424      8426      8423      8421      8424      8427
      8424      8427      8430      8431      8424      8427      8430      8432
      8424      8427      8430      8433      8425      8424      8427      8428
      8425      8424      8427      8429      8425      8424      8427      8430
      8426      8424      8427      8428      8426      8424      8427      8429
      8426      8424      8427      8430      8427      8430      8433      8434
      8427      8430      8433      8435      8427      8430      8433      8436
      8428      8427      8430      8431      8428      8427      8430      8432
      8428      8427      8430      8433      8429      8427      8430      8431
      8429      8427      8430      8432      8429      8427      8430      8433
      8431      8430      8433      8434      8431      8430      8433      8435
      8431      8430      8433      8436      8432      8430      8433      8434
      8432      8430      8433      8435      8432      8430      8433      8436
      8437      8440      8443      8444      8437      8440      8443      8445
      8437      8440      8443      8446      8438      8437      8440      8441
      8438      8437      8440      8442      8438      8437      8440      8443
      8439      8437      8440      8441      8439      8437      8440      8442
      8439      8437      8440      8443      8440      8443      8446      8447
      8440      8443      8446      8448      8440      8443      8446      8449
      8441      8440      8443      8444      8441      8440      8443      8445
      8441      8440      8443      8446      8442      8440      8443      8444
      8442      8440      8443      8445      8442      8440      8443      8446
      8443      8446      8449      8450      8443      8446      8449      8451
      8443      8446      8449      8452      8444      8443      8446      8447
      8444      8443      8446      8448      8444      8443      8446      8449
      8445      8443      8446      8447      8445      8443      8446      8448
      8445      8443      8446      8449      8446      8449      8452      8453
      8446      8449      8452      8454      8446      8449      8452      8455
      8447      8446      8449      8450      8447      8446      8449      8451
      8447      8446      8449      8452      8448      8446      8449      8450
      8448      8446      8449      8451      8448      8446      8449      8452
      8449      8452      8455      8456      8449      8452      8455      8457
      8449      8452      8455      8458      8450      8449      8452      8453
      8450      8449      8452      8454      8450      8449      8452      8455
      8451      8449      8452      8453      8451      8449      8452      8454
      8451      8449      8452      8455      8452      8455      8458      8459
      8452      8455      8458      8460      8452      8455      8458      8461
      8453      8452      8455      8456      8453      8452      8455      8457
      8453      8452      8455      8458      8454      8452      8455      8456
      8454      8452      8455      8457      8454      8452      8455      8458
      8455      8458      8461      8462      8455      8458      8461      8463
      8455      8458      8461      8464      8456      8455      8458      8459
      8456      8455      8458      8460      8456      8455      8458      8461
      8457      8455      8458      8459      8457      8455      8458      8460
      8457      8455      8458      8461      8458      8461      8464      8465
      8458      8461      8464      8466      8458      8461      8464      8467
      8459      8458      8461      8462      8459      8458      8461      8463
      8459      8458      8461      8464      8460      8458      8461      8462
      8460      8458      8461      8463      8460      8458      8461      8464
      8461      8464      8467      8468      8461      8464      8467      8469
      8461      8464      8467      8470      8462      8461      8464      8465
      8462      8461      8464      8466      8462      8461      8464      8467
      8463      8461      8464      8465      8463      8461      8464      8466
      8463      8461      8464      8467      8464      8467      8470      8471
      8464      8467      8470      8472      8464      8467      8470      8473
      8465      8464      8467      8468      8465      8464      8467      8469
      8465      8464      8467      8470      8466      8464      8467      8468
      8466      8464      8467      8469      8466      8464      8467      8470
      8467      8470      8473      8474      8467      8470      8473      8475
      8467      8470      8473      8476      8468      8467      8470      8471
      8468      8467      8470      8472      8468      8467      8470      8473
      8469      8467      8470      8471      8469      8467      8470      8472
      8469      8467      8470      8473      8470      8473      8476      8477
      8470      8473      8476      8478      8470      8473      8476      8479
      8471      8470      8473      8474      8471      8470      8473      8475
      8471      8470      8473      8476      8472      8470      8473      8474
      8472      8470      8473      8475      8472      8470      8473      8476
      8473      8476      8479      8480      8473      8476      8479      8481
      8473      8476      8479      8482      8474      8473      8476      8477
      8474      8473      8476      8478      8474      8473      8476      8479
      8475      8473      8476      8477      8475      8473      8476      8478
      8475      8473      8476      8479      8476      8479      8482      8483
      8476      8479      8482      8484      8476      8479      8482      8485
      8477      8476      8479      8480      8477      8476      8479      8481
      8477      8476      8479      8482      8478      8476      8479      8480
      8478      8476      8479      8481      8478      8476      8479      8482
      8480      8479      8482      8483      8480      8479      8482      8484
      8480      8479      8482      8485      8481      8479      8482      8483
      8481      8479      8482      8484      8481      8479      8482      8485
      8486      8499      8502      8503      8486      8499      8502      8504
      8486      8499      8502      8508      8487      8486      8491      8492
      8487      8486      8491      8493      8487      8486      8491      8494
      8487      8486      8495      8496      8487      8486      8495      8497
      8487      8486      8495      8498      8487      8486      8499      8500
      8487      8486      8499      8501      8487      8486      8499      8502
      8488      8487      8486      8491      8488      8487      8486      8495
      8488      8487      8486      8499      8489      8487      8486      8491
      8489      8487      8486      8495      8489      8487      8486      8499
      8490      8487      8486      8491      8490      8487      8486      8495
      8490      8487      8486      8499      8491      8486      8495      8496
      8491      8486      8495      8497      8491      8486      8495      8498
      8491      8486      8499      8500      8491      8486      8499      8501
      8491      8486      8499      8502      8492      8491      8486      8495
      8492      8491      8486      8499      8493      8491      8486      8495
      8493      8491      8486      8499      8494      8491      8486      8495
      8494      8491      8486      8499      8495      8486      8499      8500
      8495      8486      8499      8501      8495      8486      8499      8502
      8496      8495      8486      8499      8497      8495      8486      8499
      8498      8495      8486      8499      8499      8502      8508      8505
      8500      8499      8502      8503      8500      8499      8502      8504
      8500      8499      8502      8508      8501      8499      8502      8503
      8501      8499      8502      8504      8501      8499      8502      8508
      8502      8508      8505      8506      8502      8508      8505      8507
      8502      8508      8505      8509      8503      8502      8508      8505
      8504      8502      8508      8505      8505      8509      8510      8511
      8505      8509      8510      8512      8505      8509      8510      8513
      8506      8505      8509      8510      8507      8505      8509      8510
      8508      8505      8509      8510      8509      8510      8513      8514
      8509      8510      8513      8515      8509      8510      8513      8521
      8510      8513      8515      8516      8510      8513      8521      8522
      8510      8513      8521      8523      8510      8513      8521      8524
      8511      8510      8513      8514      8511      8510      8513      8515
      8511      8510      8513      8521      8512      8510      8513      8514
      8512      8510      8513      8515      8512      8510      8513      8521
      8513      8515      8516      8517      8513      8515      8516      8518
      8513      8521      8524      8525      8514      8513      8515      8516
      8514      8513      8521      8522      8514      8513      8521      8523
      8514      8513      8521      8524      8515      8513      8521      8522
      8515      8513      8521      8523      8515      8513      8521      8524
      8515      8516      8518      8519      8515      8516      8518      8520
      8515      8516      8518      8530      8516      8515      8513      8521
      8516      8518      8530      8531      8516      8518      8530      8532
      8516      8518      8530      8533      8517      8516      8518      8519
      8517      8516      8518      8520      8517      8516      8518      8530
      8518      8530      8533      8534      8518      8530      8533      8535
      8518      8530      8533      8536      8519      8518      8530      8531
      8519      8518      8530      8532      8519      8518      8530      8533
      8520      8518      8530      8531      8520      8518      8530      8532
      8520      8518      8530      8533      8521      8524      8525      8526
      8521      8524      8525      8527      8522      8521      8524      8525
      8523      8521      8524      8525      8524      8525      8527      8528
      8524      8525      8527      8529      8524      8525      8527      8575
      8525      8527      8575      8576      8525      8527      8575      8577
      8525      8527      8575      8578      8526      8525      8527      8528
      8526      8525      8527      8529      8526      8525      8527      8575
      8527      8575      8578      8579      8527      8575      8578      8580
      8527      8575      8578      8581      8528      8527      8575      8576
      8528      8527      8575      8577      8528      8527      8575      8578
      8529      8527      8575      8576      8529      8527      8575      8577
      8529      8527      8575      8578      8530      8533      8536      8537
      8530      8533      8536      8538      8530      8533      8536      8539
      8531      8530      8533      8534      8531      8530      8533      8535
      8531      8530      8533      8536      8532      8530      8533      8534
      8532      8530      8533      8535      8532      8530      8533      8536
      8533      8536      8539      8540      8533      8536      8539      8541
      8533      8536      8539      8542      8534      8533      8536      8537
      8534      8533      8536      8538      8534      8533      8536      8539
      8535      8533      8536      8537      8535      8533      8536      8538
      8535      8533      8536      8539      8536      8539      8542      8543
      8536      8539      8542      8544      8536      8539      8542      8545
      8537      8536      8539      8540      8537      8536      8539      8541
      8537      8536      8539      8542      8538      8536      8539      8540
      8538      8536      8539      8541      8538      8536      8539      8542
      8539      8542      8545      8546      8539      8542      8545      8547
      8539      8542      8545      8548      8540      8539      8542      8543
      8540      8539      8542      8544      8540      8539      8542      8545
      8541      8539      8542      8543      8541      8539      8542      8544
      8541      8539      8542      8545      8542      8545      8548      8549
      8542      8545      8548      8550      8543      8542      8545      8546
      8543      8542      8545      8547      8543      8542      8545      8548
      8544      8542      8545      8546      8544      8542      8545      8547
      8544      8542      8545      8548      8545      8548      8550      8551
      8545      8548      8550      8552      8546      8545      8548      8549
      8546      8545      8548      8550      8547      8545      8548      8549
      8547      8545      8548      8550      8548      8550      8552      8553
      8548      8550      8552      8554      8548      8550      8552      8555
      8549      8548      8550      8551      8549      8548      8550      8552
      8550      8552      8555      8556      8550      8552      8555      8557
      8551      8550      8552      8553      8551      8550      8552      8554
      8551      8550      8552      8555      8552      8555      8557      8558
      8552      8555      8557      8559      8553      8552      8555      8556
      8553      8552      8555      8557      8554      8552      8555      8556
      8554      8552      8555      8557      8555      8557      8559      8560
      8555      8557      8559      8561      8555      8557      8559      8562
      8556      8555      8557      8558      8556      8555      8557      8559
      8557      8559      8562      8563      8557      8559      8562      8564
      8557      8559      8562      8565      8558      8557      8559      8560
      8558      8557      8559      8561      8558      8557      8559      8562
      8559      8562      8565      8566      8559      8562      8565      8567
      8559      8562      8565      8568      8560      8559      8562      8563
      8560      8559      8562      8564      8560      8559      8562      8565
      8561      8559      8562      8563      8561      8559      8562      8564
      8561      8559      8562      8565      8562      8565      8568      8569
      8562      8565      8568      8570      8562      8565      8568      8571
      8563      8562      8565      8566      8563      8562      8565      8567
      8563      8562      8565      8568      8564      8562      8565      8566
      8564      8562      8565      8567      8564      8562      8565      8568
      8565      8568      8571      8572      8565      8568      8571      8573
      8565      8568      8571      8574      8566      8565      8568      8569
      8566      8565      8568      8570      8566      8565      8568      8571
      8567      8565      8568      8569      8567      8565      8568      8570
      8567      8565      8568      8571      8569      8568      8571      8572
      8569      8568      8571      8573      8569      8568      8571      8574
      8570      8568      8571      8572      8570      8568      8571      8573
      8570      8568      8571      8574      8575      8578      8581      8582
      8575      8578      8581      8583      8575      8578      8581      8584
      8576      8575      8578      8579      8576      8575      8578      8580
      8576      8575      8578      8581      8577      8575      8578      8579
      8577      8575      8578      8580      8577      8575      8578      8581
      8578      8581      8584      8585      8578      8581      8584      8586
      8578      8581      8584      8587      8579      8578      8581      8582
      8579      8578      8581      8583      8579      8578      8581      8584
      8580      8578      8581      8582      8580      8578      8581      8583
      8580      8578      8581      8584      8581      8584      8587      8588
      8581      8584      8587      8589      8581      8584      8587      8590
      8582      8581      8584      8585      8582      8581      8584      8586
      8582      8581      8584      8587      8583      8581      8584      8585
      8583      8581      8584      8586      8583      8581      8584      8587
      8584      8587      8590      8591      8584      8587      8590      8592
      8584      8587      8590      8593      8585      8584      8587      8588
      8585      8584      8587      8589      8585      8584      8587      8590
      8586      8584      8587      8588      8586      8584      8587      8589
      8586      8584      8587      8590      8587      8590      8593      8594
      8587      8590      8593      8595      8587      8590      8593      8596
      8588      8587      8590      8591      8588      8587      8590      8592
      8588      8587      8590      8593      8589      8587      8590      8591
      8589      8587      8590      8592      8589      8587      8590      8593
      8590      8593      8596      8597      8590      8593      8596      8598
      8590      8593      8596      8599      8591      8590      8593      8594
      8591      8590      8593      8595      8591      8590      8593      8596
      8592      8590      8593      8594      8592      8590      8593      8595
      8592      8590      8593      8596      8593      8596      8599      8600
      8593      8596      8599      8601      8593      8596      8599      8602
      8594      8593      8596      8597      8594      8593      8596      8598
      8594      8593      8596      8599      8595      8593      8596      8597
      8595      8593      8596      8598      8595      8593      8596      8599
      8596      8599      8602      8603      8596      8599      8602      8604
      8596      8599      8602      8605      8597      8596      8599      8600
      8597      8596      8599      8601      8597      8596      8599      8602
      8598      8596      8599      8600      8598      8596      8599      8601
      8598      8596      8599      8602      8599      8602      8605      8606
      8599      8602      8605      8607      8599      8602      8605      8608
      8600      8599      8602      8603      8600      8599      8602      8604
      8600      8599      8602      8605      8601      8599      8602      8603
      8601      8599      8602      8604      8601      8599      8602      8605
      8602      8605      8608      8609      8602      8605      8608      8610
      8602      8605      8608      8611      8603      8602      8605      8606
      8603      8602      8605      8607      8603      8602      8605      8608
      8604      8602      8605      8606      8604      8602      8605      8607
      8604      8602      8605      8608      8605      8608      8611      8612
      8605      8608      8611      8613      8605      8608      8611      8614
      8606      8605      8608      8609      8606      8605      8608      8610
      8606      8605      8608      8611      8607      8605      8608      8609
      8607      8605      8608      8610      8607      8605      8608      8611
      8608      8611      8614      8615      8608      8611      8614      8616
      8608      8611      8614      8617      8609      8608      8611      8612
      8609      8608      8611      8613      8609      8608      8611      8614
      8610      8608      8611      8612      8610      8608      8611      8613
      8610      8608      8611      8614      8611      8614      8617      8618
      8611      8614      8617      8619      8611      8614      8617      8620
      8612      8611      8614      8615      8612      8611      8614      8616
      8612      8611      8614      8617      8613      8611      8614      8615
      8613      8611      8614      8616      8613      8611      8614      8617
      8614      8617      8620      8621      8614      8617      8620      8622
      8614      8617      8620      8623      8615      8614      8617      8618
      8615      8614      8617      8619      8615      8614      8617      8620
      8616      8614      8617      8618      8616      8614      8617      8619
      8616      8614      8617      8620      8618      8617      8620      8621
      8618      8617      8620      8622      8618      8617      8620      8623
      8619      8617      8620      8621      8619      8617      8620      8622
      8619      8617      8620      8623      8624      8628      8631      8632
      8624      8628      8631      8633      8624      8628      8631      8637
      8625      8624      8628      8629      8625      8624      8628      8630
      8625      8624      8628      8631      8626      8624      8628      8629
      8626      8624      8628      8630      8626      8624      8628      8631
      8627      8624      8628      8629      8627      8624      8628      8630
      8627      8624      8628      8631      8628      8631      8637      8634
      8629      8628      8631      8632      8629      8628      8631      8633
      8629      8628      8631      8637      8630      8628      8631      8632
      8630      8628      8631      8633      8630      8628      8631      8637
      8631      8637      8634      8635      8631      8637      8634      8636
      8631      8637      8634      8638      8632      8631      8637      8634
      8633      8631      8637      8634      8634      8638      8639      8640
      8634      8638      8639      8641      8634      8638      8639      8642
      8635      8634      8638      8639      8636      8634      8638      8639
      8637      8634      8638      8639      8638      8639      8642      8643
      8638      8639      8642      8644      8638      8639      8642      8650
      8639      8642      8644      8645      8639      8642      8650      8651
      8639      8642      8650      8652      8639      8642      8650      8653
      8640      8639      8642      8643      8640      8639      8642      8644
      8640      8639      8642      8650      8641      8639      8642      8643
      8641      8639      8642      8644      8641      8639      8642      8650
      8642      8644      8645      8646      8642      8644      8645      8647
      8642      8650      8653      8654      8643      8642      8644      8645
      8643      8642      8650      8651      8643      8642      8650      8652
      8643      8642      8650      8653      8644      8642      8650      8651
      8644      8642      8650      8652      8644      8642      8650      8653
      8644      8645      8647      8648      8644      8645      8647      8649
      8644      8645      8647      8659      8645      8644      8642      8650
      8645      8647      8659      8660      8645      8647      8659      8661
      8645      8647      8659      8662      8646      8645      8647      8648
      8646      8645      8647      8649      8646      8645      8647      8659
      8647      8659      8662      8663      8647      8659      8662      8664
      8647      8659      8662      8665      8648      8647      8659      8660
      8648      8647      8659      8661      8648      8647      8659      8662
      8649      8647      8659      8660      8649      8647      8659      8661
      8649      8647      8659      8662      8650      8653      8654      8655
      8650      8653      8654      8656      8651      8650      8653      8654
      8652      8650      8653      8654      8653      8654      8656      8657
      8653      8654      8656      8658      8653      8654      8656      8706
      8654      8656      8706      8707      8654      8656      8706      8708
      8654      8656      8706      8709      8655      8654      8656      8657
      8655      8654      8656      8658      8655      8654      8656      8706
      8656      8706      8709      8710      8656      8706      8709      8711
      8656      8706      8709      8712      8657      8656      8706      8707
      8657      8656      8706      8708      8657      8656      8706      8709
      8658      8656      8706      8707      8658      8656      8706      8708
      8658      8656      8706      8709      8659      8662      8665      8666
      8659      8662      8665      8667      8660      8659      8662      8663
      8660      8659      8662      8664      8660      8659      8662      8665
      8661      8659      8662      8663      8661      8659      8662      8664
      8661      8659      8662      8665      8662      8665      8667      8668
      8662      8665      8667      8669      8663      8662      8665      8666
      8663      8662      8665      8667      8664      8662      8665      8666
      8664      8662      8665      8667      8665      8667      8669      8670
      8665      8667      8669      8671      8665      8667      8669      8672
      8666      8665      8667      8668      8666      8665      8667      8669
      8667      8669      8672      8673      8667      8669      8672      8674
      8668      8667      8669      8670      8668      8667      8669      8671
      8668      8667      8669      8672      8669      8672      8674      8675
      8669      8672      8674      8676      8670      8669      8672      8673
      8670      8669      8672      8674      8671      8669      8672      8673
      8671      8669      8672      8674      8672      8674      8676      8677
      8672      8674      8676      8678      8672      8674      8676      8679
      8673      8672      8674      8675      8673      8672      8674      8676
      8674      8676      8679      8680      8674      8676      8679      8681
      8675      8674      8676      8677      8675      8674      8676      8678
      8675      8674      8676      8679      8676      8679      8681      8682
      8676      8679      8681      8683      8677      8676      8679      8680
      8677      8676      8679      8681      8678      8676      8679      8680
      8678      8676      8679      8681      8679      8681      8683      8684
      8679      8681      8683      8685      8679      8681      8683      8686
      8680      8679      8681      8682      8680      8679      8681      8683
      8681      8683      8686      8687      8681      8683      8686      8688
      8682      8681      8683      8684      8682      8681      8683      8685
      8682      8681      8683      8686      8683      8686      8688      8689
      8683      8686      8688      8690      8684      8683      8686      8687
      8684      8683      8686      8688      8685      8683      8686      8687
      8685      8683      8686      8688      8686      8688      8690      8691
      8686      8688      8690      8692      8686      8688      8690      8693
      8687      8686      8688      8689      8687      8686      8688      8690
      8688      8690      8693      8694      8688      8690      8693      8695
      8688      8690      8693      8696      8689      8688      8690      8691
      8689      8688      8690      8692      8689      8688      8690      8693
      8690      8693      8696      8697      8690      8693      8696      8698
      8690      8693      8696      8699      8691      8690      8693      8694
      8691      8690      8693      8695      8691      8690      8693      8696
      8692      8690      8693      8694      8692      8690      8693      8695
      8692      8690      8693      8696      8693      8696      8699      8700
      8693      8696      8699      8701      8693      8696      8699      8702
      8694      8693      8696      8697      8694      8693      8696      8698
      8694      8693      8696      8699      8695      8693      8696      8697
      8695      8693      8696      8698      8695      8693      8696      8699
      8696      8699      8702      8703      8696      8699      8702      8704
      8696      8699      8702      8705      8697      8696      8699      8700
      8697      8696      8699      8701      8697      8696      8699      8702
      8698      8696      8699      8700      8698      8696      8699      8701
      8698      8696      8699      8702      8700      8699      8702      8703
      8700      8699      8702      8704      8700      8699      8702      8705
      8701      8699      8702      8703      8701      8699      8702      8704
      8701      8699      8702      8705      8706      8709      8712      8713
      8706      8709      8712      8714      8706      8709      8712      8715
      8707      8706      8709      8710      8707      8706      8709      8711
      8707      8706      8709      8712      8708      8706      8709      8710
      8708      8706      8709      8711      8708      8706      8709      8712
      8709      8712      8715      8716      8709      8712      8715      8717
      8709      8712      8715      8718      8710      8709      8712      8713
      8710      8709      8712      8714      8710      8709      8712      8715
      8711      8709      8712      8713      8711      8709      8712      8714
      8711      8709      8712      8715      8712      8715      8718      8719
      8712      8715      8718      8720      8712      8715      8718      8721
      8713      8712      8715      8716      8713      8712      8715      8717
      8713      8712      8715      8718      8714      8712      8715      8716
      8714      8712      8715      8717      8714      8712      8715      8718
      8715      8718      8721      8722      8715      8718      8721      8723
      8715      8718      8721      8724      8716      8715      8718      8719
      8716      8715      8718      8720      8716      8715      8718      8721
      8717      8715      8718      8719      8717      8715      8718      8720
      8717      8715      8718      8721      8718      8721      8724      8725
      8718      8721      8724      8726      8718      8721      8724      8727
      8719      8718      8721      8722      8719      8718      8721      8723
      8719      8718      8721      8724      8720      8718      8721      8722
      8720      8718      8721      8723      8720      8718      8721      8724
      8721      8724      8727      8728      8721      8724      8727      8729
      8721      8724      8727      8730      8722      8721      8724      8725
      8722      8721      8724      8726      8722      8721      8724      8727
      8723      8721      8724      8725      8723      8721      8724      8726
      8723      8721      8724      8727      8724      8727      8730      8731
      8724      8727      8730      8732      8724      8727      8730      8733
      8725      8724      8727      8728      8725      8724      8727      8729
      8725      8724      8727      8730      8726      8724      8727      8728
      8726      8724      8727      8729      8726      8724      8727      8730
      8727      8730      8733      8734      8727      8730      8733      8735
      8727      8730      8733      8736      8728      8727      8730      8731
      8728      8727      8730      8732      8728      8727      8730      8733
      8729      8727      8730      8731      8729      8727      8730      8732
      8729      8727      8730      8733      8730      8733      8736      8737
      8730      8733      8736      8738      8730      8733      8736      8739
      8731      8730      8733      8734      8731      8730      8733      8735
      8731      8730      8733      8736      8732      8730      8733      8734
      8732      8730      8733      8735      8732      8730      8733      8736
      8733      8736      8739      8740      8733      8736      8739      8741
      8733      8736      8739      8742      8734      8733      8736      8737
      8734      8733      8736      8738      8734      8733      8736      8739
      8735      8733      8736      8737      8735      8733      8736      8738
      8735      8733      8736      8739      8736      8739      8742      8743
      8736      8739      8742      8744      8736      8739      8742      8745
      8737      8736      8739      8740      8737      8736      8739      8741
      8737      8736      8739      8742      8738      8736      8739      8740
      8738      8736      8739      8741      8738      8736      8739      8742
      8739      8742      8745      8746      8739      8742      8745      8747
      8739      8742      8745      8748      8740      8739      8742      8743
      8740      8739      8742      8744      8740      8739      8742      8745
      8741      8739      8742      8743      8741      8739      8742      8744
      8741      8739      8742      8745      8742      8745      8748      8749
      8742      8745      8748      8750      8742      8745      8748      8751
      8743      8742      8745      8746      8743      8742      8745      8747
      8743      8742      8745      8748      8744      8742      8745      8746
      8744      8742      8745      8747      8744      8742      8745      8748
      8745      8748      8751      8752      8745      8748      8751      8753
      8745      8748      8751      8754      8746      8745      8748      8749
      8746      8745      8748      8750      8746      8745      8748      8751
      8747      8745      8748      8749      8747      8745      8748      8750
      8747      8745      8748      8751      8749      8748      8751      8752
      8749      8748      8751      8753      8749      8748      8751      8754
      8750      8748      8751      8752      8750      8748      8751      8753
      8750      8748      8751      8754      8755      8759      8761      8762
      8755      8759      8761      8763      8755      8759      8764      8765
      8755      8759      8764      8766      8755      8759      8764      8770
      8756      8755      8759      8760      8756      8755      8759      8761
      8756      8755      8759      8764      8757      8755      8759      8760
      8757      8755      8759      8761      8757      8755      8759      8764
      8758      8755      8759      8760      8758      8755      8759      8761
      8758      8755      8759      8764      8759      8764      8770      8767
      8760      8759      8761      8762      8760      8759      8761      8763
      8760      8759      8764      8765      8760      8759      8764      8766
      8760      8759      8764      8770      8761      8759      8764      8765
      8761      8759      8764      8766      8761      8759      8764      8770
      8762      8761      8759      8764      8763      8761      8759      8764
      8764      8770      8767      8768      8764      8770      8767      8769
      8764      8770      8767      8771      8765      8764      8770      8767
      8766      8764      8770      8767      8767      8771      8772      8773
      8767      8771      8772      8774      8767      8771      8772      8775
      8768      8767      8771      8772      8769      8767      8771      8772
      8770      8767      8771      8772      8771      8772      8775      8776
      8771      8772      8775      8777      8771      8772      8775      8783
      8772      8775      8777      8778      8772      8775      8783      8784
      8772      8775      8783      8785      8772      8775      8783      8786
      8773      8772      8775      8776      8773      8772      8775      8777
      8773      8772      8775      8783      8774      8772      8775      8776
      8774      8772      8775      8777      8774      8772      8775      8783
      8775      8777      8778      8779      8775      8777      8778      8780
      8775      8783      8786      8787      8776      8775      8777      8778
      8776      8775      8783      8784      8776      8775      8783      8785
      8776      8775      8783      8786      8777      8775      8783      8784
      8777      8775      8783      8785      8777      8775      8783      8786
      8777      8778      8780      8781      8777      8778      8780      8782
      8777      8778      8780      8792      8778      8777      8775      8783
      8778      8780      8792      8793      8778      8780      8792      8794
      8778      8780      8792      8795      8779      8778      8780      8781
      8779      8778      8780      8782      8779      8778      8780      8792
      8780      8792      8795      8796      8780      8792      8795      8797
      8780      8792      8795      8798      8781      8780      8792      8793
      8781      8780      8792      8794      8781      8780      8792      8795
      8782      8780      8792      8793      8782      8780      8792      8794
      8782      8780      8792      8795      8783      8786      8787      8788
      8783      8786      8787      8789      8784      8783      8786      8787
      8785      8783      8786      8787      8786      8787      8789      8790
      8786      8787      8789      8791      8786      8787      8789      8839
      8787      8789      8839      8840      8787      8789      8839      8841
      8787      8789      8839      8842      8788      8787      8789      8790
      8788      8787      8789      8791      8788      8787      8789      8839
      8789      8839      8842      8843      8789      8839      8842      8844
      8789      8839      8842      8845      8790      8789      8839      8840
      8790      8789      8839      8841      8790      8789      8839      8842
      8791      8789      8839      8840      8791      8789      8839      8841
      8791      8789      8839      8842      8792      8795      8798      8799
      8792      8795      8798      8800      8793      8792      8795      8796
      8793      8792      8795      8797      8793      8792      8795      8798
      8794      8792      8795      8796      8794      8792      8795      8797
      8794      8792      8795      8798      8795      8798      8800      8801
      8795      8798      8800      8802      8796      8795      8798      8799
      8796      8795      8798      8800      8797      8795      8798      8799
      8797      8795      8798      8800      8798      8800      8802      8803
      8798      8800      8802      8804      8798      8800      8802      8805
      8799      8798      8800      8801      8799      8798      8800      8802
      8800      8802      8805      8806      8800      8802      8805      8807
      8801      8800      8802      8803      8801      8800      8802      8804
      8801      8800      8802      8805      8802      8805      8807      8808
      8802      8805      8807      8809      8803      8802      8805      8806
      8803      8802      8805      8807      8804      8802      8805      8806
      8804      8802      8805      8807      8805      8807      8809      8810
      8805      8807      8809      8811      8805      8807      8809      8812
      8806      8805      8807      8808      8806      8805      8807      8809
      8807      8809      8812      8813      8807      8809      8812      8814
      8808      8807      8809      8810      8808      8807      8809      8811
      8808      8807      8809      8812      8809      8812      8814      8815
      8809      8812      8814      8816      8810      8809      8812      8813
      8810      8809      8812      8814      8811      8809      8812      8813
      8811      8809      8812      8814      8812      8814      8816      8817
      8812      8814      8816      8818      8812      8814      8816      8819
      8813      8812      8814      8815      8813      8812      8814      8816
      8814      8816      8819      8820      8814      8816      8819      8821
      8815      8814      8816      8817      8815      8814      8816      8818
      8815      8814      8816      8819      8816      8819      8821      8822
      8816      8819      8821      8823      8817      8816      8819      8820
      8817      8816      8819      8821      8818      8816      8819      8820
      8818      8816      8819      8821      8819      8821      8823      8824
      8819      8821      8823      8825      8819      8821      8823      8826
      8820      8819      8821      8822      8820      8819      8821      8823
      8821      8823      8826      8827      8821      8823      8826      8828
      8821      8823      8826      8829      8822      8821      8823      8824
      8822      8821      8823      8825      8822      8821      8823      8826
      8823      8826      8829      8830      8823      8826      8829      8831
      8823      8826      8829      8832      8824      8823      8826      8827
      8824      8823      8826      8828      8824      8823      8826      8829
      8825      8823      8826      8827      8825      8823      8826      8828
      8825      8823      8826      8829      8826      8829      8832      8833
      8826      8829      8832      8834      8826      8829      8832      8835
      8827      8826      8829      8830      8827      8826      8829      8831
      8827      8826      8829      8832      8828      8826      8829      8830
      8828      8826      8829      8831      8828      8826      8829      8832
      8829      8832      8835      8836      8829      8832      8835      8837
      8829      8832      8835      8838      8830      8829      8832      8833
      8830      8829      8832      8834      8830      8829      8832      8835
      8831      8829      8832      8833      8831      8829      8832      8834
      8831      8829      8832      8835      8833      8832      8835      8836
      8833      8832      8835      8837      8833      8832      8835      8838
      8834      8832      8835      8836      8834      8832      8835      8837
      8834      8832      8835      8838      8839      8842      8845      8846
      8839      8842      8845      8847      8839      8842      8845      8848
      8840      8839      8842      8843      8840      8839      8842      8844
      8840      8839      8842      8845      8841      8839      8842      8843
      8841      8839      8842      8844      8841      8839      8842      8845
      8842      8845      8848      8849      8842      8845      8848      8850
      8842      8845      8848      8851      8843      8842      8845      8846
      8843      8842      8845      8847      8843      8842      8845      8848
      8844      8842      8845      8846      8844      8842      8845      8847
      8844      8842      8845      8848      8845      8848      8851      8852
      8845      8848      8851      8853      8845      8848      8851      8854
      8846      8845      8848      8849      8846      8845      8848      8850
      8846      8845      8848      8851      8847      8845      8848      8849
      8847      8845      8848      8850      8847      8845      8848      8851
      8848      8851      8854      8855      8848      8851      8854      8856
      8848      8851      8854      8857      8849      8848      8851      8852
      8849      8848      8851      8853      8849      8848      8851      8854
      8850      8848      8851      8852      8850      8848      8851      8853
      8850      8848      8851      8854      8851      8854      8857      8858
      8851      8854      8857      8859      8851      8854      8857      8860
      8852      8851      8854      8855      8852      8851      8854      8856
      8852      8851      8854      8857      8853      8851      8854      8855
      8853      8851      8854      8856      8853      8851      8854      8857
      8854      8857      8860      8861      8854      8857      8860      8862
      8854      8857      8860      8863      8855      8854      8857      8858
      8855      8854      8857      8859      8855      8854      8857      8860
      8856      8854      8857      8858      8856      8854      8857      8859
      8856      8854      8857      8860      8857      8860      8863      8864
      8857      8860      8863      8865      8857      8860      8863      8866
      8858      8857      8860      8861      8858      8857      8860      8862
      8858      8857      8860      8863      8859      8857      8860      8861
      8859      8857      8860      8862      8859      8857      8860      8863
      8860      8863      8866      8867      8860      8863      8866      8868
      8860      8863      8866      8869      8861      8860      8863      8864
      8861      8860      8863      8865      8861      8860      8863      8866
      8862      8860      8863      8864      8862      8860      8863      8865
      8862      8860      8863      8866      8863      8866      8869      8870
      8863      8866      8869      8871      8863      8866      8869      8872
      8864      8863      8866      8867      8864      8863      8866      8868
      8864      8863      8866      8869      8865      8863      8866      8867
      8865      8863      8866      8868      8865      8863      8866      8869
      8866      8869      8872      8873      8866      8869      8872      8874
      8866      8869      8872      8875      8867      8866      8869      8870
      8867      8866      8869      8871      8867      8866      8869      8872
      8868      8866      8869      8870      8868      8866      8869      8871
      8868      8866      8869      8872      8869      8872      8875      8876
      8869      8872      8875      8877      8869      8872      8875      8878
      8870      8869      8872      8873      8870      8869      8872      8874
      8870      8869      8872      8875      8871      8869      8872      8873
      8871      8869      8872      8874      8871      8869      8872      8875
      8872      8875      8878      8879      8872      8875      8878      8880
      8872      8875      8878      8881      8873      8872      8875      8876
      8873      8872      8875      8877      8873      8872      8875      8878
      8874      8872      8875      8876      8874      8872      8875      8877
      8874      8872      8875      8878      8875      8878      8881      8882
      8875      8878      8881      8883      8875      8878      8881      8884
      8876      8875      8878      8879      8876      8875      8878      8880
      8876      8875      8878      8881      8877      8875      8878      8879
      8877      8875      8878      8880      8877      8875      8878      8881
      8878      8881      8884      8885      8878      8881      8884      8886
      8878      8881      8884      8887      8879      8878      8881      8882
      8879      8878      8881      8883      8879      8878      8881      8884
      8880      8878      8881      8882      8880      8878      8881      8883
      8880      8878      8881      8884      8882      8881      8884      8885
      8882      8881      8884      8886      8882      8881      8884      8887
      8883      8881      8884      8885      8883      8881      8884      8886
      8883      8881      8884      8887      8888      8892      8894      8895
      8888      8892      8894      8896      8888      8892      8897      8898
      8888      8892      8897      8899      8888      8892      8897      8903
      8889      8888      8892      8893      8889      8888      8892      8894
      8889      8888      8892      8897      8890      8888      8892      8893
      8890      8888      8892      8894      8890      8888      8892      8897
      8891      8888      8892      8893      8891      8888      8892      8894
      8891      8888      8892      8897      8892      8897      8903      8900
      8893      8892      8894      8895      8893      8892      8894      8896
      8893      8892      8897      8898      8893      8892      8897      8899
      8893      8892      8897      8903      8894      8892      8897      8898
      8894      8892      8897      8899      8894      8892      8897      8903
      8895      8894      8892      8897      8896      8894      8892      8897
      8897      8903      8900      8901      8897      8903      8900      8902
      8897      8903      8900      8904      8898      8897      8903      8900
      8899      8897      8903      8900      8900      8904      8905      8906
      8900      8904      8905      8907      8900      8904      8905      8908
      8901      8900      8904      8905      8902      8900      8904      8905
      8903      8900      8904      8905      8904      8905      8908      8909
      8904      8905      8908      8910      8904      8905      8908      8916
      8905      8908      8910      8911      8905      8908      8916      8917
      8905      8908      8916      8918      8905      8908      8916      8919
      8906      8905      8908      8909      8906      8905      8908      8910
      8906      8905      8908      8916      8907      8905      8908      8909
      8907      8905      8908      8910      8907      8905      8908      8916
      8908      8910      8911      8912      8908      8910      8911      8913
      8908      8916      8919      8920      8909      8908      8910      8911
      8909      8908      8916      8917      8909      8908      8916      8918
      8909      8908      8916      8919      8910      8908      8916      8917
      8910      8908      8916      8918      8910      8908      8916      8919
      8910      8911      8913      8914      8910      8911      8913      8915
      8910      8911      8913      8925      8911      8910      8908      8916
      8911      8913      8925      8926      8911      8913      8925      8927
      8911      8913      8925      8928      8912      8911      8913      8914
      8912      8911      8913      8915      8912      8911      8913      8925
      8913      8925      8928      8929      8913      8925      8928      8930
      8913      8925      8928      8931      8914      8913      8925      8926
      8914      8913      8925      8927      8914      8913      8925      8928
      8915      8913      8925      8926      8915      8913      8925      8927
      8915      8913      8925      8928      8916      8919      8920      8921
      8916      8919      8920      8922      8917      8916      8919      8920
      8918      8916      8919      8920      8919      8920      8922      8923
      8919      8920      8922      8924      8919      8920      8922      8972
      8920      8922      8972      8973      8920      8922      8972      8974
      8920      8922      8972      8975      8921      8920      8922      8923
      8921      8920      8922      8924      8921      8920      8922      8972
      8922      8972      8975      8976      8922      8972      8975      8977
      8922      8972      8975      8978      8923      8922      8972      8973
      8923      8922      8972      8974      8923      8922      8972      8975
      8924      8922      8972      8973      8924      8922      8972      8974
      8924      8922      8972      8975      8925      8928      8931      8932
      8925      8928      8931      8933      8926      8925      8928      8929
      8926      8925      8928      8930      8926      8925      8928      8931
      8927      8925      8928      8929      8927      8925      8928      8930
      8927      8925      8928      8931      8928      8931      8933      8934
      8928      8931      8933      8935      8929      8928      8931      8932
      8929      8928      8931      8933      8930      8928      8931      8932
      8930      8928      8931      8933      8931      8933      8935      8936
      8931      8933      8935      8937      8931      8933      8935      8938
      8932      8931      8933      8934      8932      8931      8933      8935
      8933      8935      8938      8939      8933      8935      8938      8940
      8934      8933      8935      8936      8934      8933      8935      8937
      8934      8933      8935      8938      8935      8938      8940      8941
      8935      8938      8940      8942      8936      8935      8938      8939
      8936      8935      8938      8940      8937      8935      8938      8939
      8937      8935      8938      8940      8938      8940      8942      8943
      8938      8940      8942      8944      8938      8940      8942      8945
      8939      8938      8940      8941      8939      8938      8940      8942
      8940      8942      8945      8946      8940      8942      8945      8947
      8941      8940      8942      8943      8941      8940      8942      8944
      8941      8940      8942      8945      8942      8945      8947      8948
      8942      8945      8947      8949      8943      8942      8945      8946
      8943      8942      8945      8947      8944      8942      8945      8946
      8944      8942      8945      8947      8945      8947      8949      8950
      8945      8947      8949      8951      8945      8947      8949      8952
      8946      8945      8947      8948      8946      8945      8947      8949
      8947      8949      8952      8953      8947      8949      8952      8954
      8948      8947      8949      8950      8948      8947      8949      8951
      8948      8947      8949      8952      8949      8952      8954      8955
      8949      8952      8954      8956      8950      8949      8952      8953
      8950      8949      8952      8954      8951      8949      8952      8953
      8951      8949      8952      8954      8952      8954      8956      8957
      8952      8954      8956      8958      8952      8954      8956      8959
      8953      8952      8954      8955      8953      8952      8954      8956
      8954      8956      8959      8960      8954      8956      8959      8961
      8954      8956      8959      8962      8955      8954      8956      8957
      8955      8954      8956      8958      8955      8954      8956      8959
      8956      8959      8962      8963      8956      8959      8962      8964
      8956      8959      8962      8965      8957      8956      8959      8960
      8957      8956      8959      8961      8957      8956      8959      8962
      8958      8956      8959      8960      8958      8956      8959      8961
      8958      8956      8959      8962      8959      8962      8965      8966
      8959      8962      8965      8967      8959      8962      8965      8968
      8960      8959      8962      8963      8960      8959      8962      8964
      8960      8959      8962      8965      8961      8959      8962      8963
      8961      8959      8962      8964      8961      8959      8962      8965
      8962      8965      8968      8969      8962      8965      8968      8970
      8962      8965      8968      8971      8963      8962      8965      8966
      8963      8962      8965      8967      8963      8962      8965      8968
      8964      8962      8965      8966      8964      8962      8965      8967
      8964      8962      8965      8968      8966      8965      8968      8969
      8966      8965      8968      8970      8966      8965      8968      8971
      8967      8965      8968      8969      8967      8965      8968      8970
      8967      8965      8968      8971      8972      8975      8978      8979
      8972      8975      8978      8980      8972      8975      8978      8981
      8973      8972      8975      8976      8973      8972      8975      8977
      8973      8972      8975      8978      8974      8972      8975      8976
      8974      8972      8975      8977      8974      8972      8975      8978
      8975      8978      8981      8982      8975      8978      8981      8983
      8975      8978      8981      8984      8976      8975      8978      8979
      8976      8975      8978      8980      8976      8975      8978      8981
      8977      8975      8978      8979      8977      8975      8978      8980
      8977      8975      8978      8981      8978      8981      8984      8985
      8978      8981      8984      8986      8978      8981      8984      8987
      8979      8978      8981      8982      8979      8978      8981      8983
      8979      8978      8981      8984      8980      8978      8981      8982
      8980      8978      8981      8983      8980      8978      8981      8984
      8981      8984      8987      8988      8981      8984      8987      8989
      8981      8984      8987      8990      8982      8981      8984      8985
      8982      8981      8984      8986      8982      8981      8984      8987
      8983      8981      8984      8985      8983      8981      8984      8986
      8983      8981      8984      8987      8984      8987      8990      8991
      8984      8987      8990      8992      8984      8987      8990      8993
      8985      8984      8987      8988      8985      8984      8987      8989
      8985      8984      8987      8990      8986      8984      8987      8988
      8986      8984      8987      8989      8986      8984      8987      8990
      8987      8990      8993      8994      8987      8990      8993      8995
      8987      8990      8993      8996      8988      8987      8990      8991
      8988      8987      8990      8992      8988      8987      8990      8993
      8989      8987      8990      8991      8989      8987      8990      8992
      8989      8987      8990      8993      8990      8993      8996      8997
      8990      8993      8996      8998      8990      8993      8996      8999
      8991      8990      8993      8994      8991      8990      8993      8995
      8991      8990      8993      8996      8992      8990      8993      8994
      8992      8990      8993      8995      8992      8990      8993      8996
      8993      8996      8999      9000      8993      8996      8999      9001
      8993      8996      8999      9002      8994      8993      8996      8997
      8994      8993      8996      8998      8994      8993      8996      8999
      8995      8993      8996      8997      8995      8993      8996      8998
      8995      8993      8996      8999      8996      8999      9002      9003
      8996      8999      9002      9004      8996      8999      9002      9005
      8997      8996      8999      9000      8997      8996      8999      9001
      8997      8996      8999      9002      8998      8996      8999      9000
      8998      8996      8999      9001      8998      8996      8999      9002
      8999      9002      9005      9006      8999      9002      9005      9007
      8999      9002      9005      9008      9000      8999      9002      9003
      9000      8999      9002      9004      9000      8999      9002      9005
      9001      8999      9002      9003      9001      8999      9002      9004
      9001      8999      9002      9005      9002      9005      9008      9009
      9002      9005      9008      9010      9002      9005      9008      9011
      9003      9002      9005      9006      9003      9002      9005      9007
      9003      9002      9005      9008      9004      9002      9005      9006
      9004      9002      9005      9007      9004      9002      9005      9008
      9005      9008      9011      9012      9005      9008      9011      9013
      9005      9008      9011      9014      9006      9005      9008      9009
      9006      9005      9008      9010      9006      9005      9008      9011
      9007      9005      9008      9009      9007      9005      9008      9010
      9007      9005      9008      9011      9008      9011      9014      9015
      9008      9011      9014      9016      9008      9011      9014      9017
      9009      9008      9011      9012      9009      9008      9011      9013
      9009      9008      9011      9014      9010      9008      9011      9012
      9010      9008      9011      9013      9010      9008      9011      9014
      9011      9014      9017      9018      9011      9014      9017      9019
      9011      9014      9017      9020      9012      9011      9014      9015
      9012      9011      9014      9016      9012      9011      9014      9017
      9013      9011      9014      9015      9013      9011      9014      9016
      9013      9011      9014      9017      9015      9014      9017      9018
      9015      9014      9017      9019      9015      9014      9017      9020
      9016      9014      9017      9018      9016      9014      9017      9019
      9016      9014      9017      9020      9021      9022      9037      9038
      9021      9022      9037      9039      9021      9022      9037      9043
      9022      9021      9025      9026      9022      9021      9025      9027
      9022      9021      9025      9028      9022      9021      9029      9030
      9022      9021      9029      9031      9022      9021      9029      9032
      9022      9021      9033      9034      9022      9021      9033      9035
      9022      9021      9033      9036      9022      9037      9043      9040
      9023      9022      9021      9025      9023      9022      9021      9029
      9023      9022      9021      9033      9023      9022      9037      9038
      9023      9022      9037      9039      9023      9022      9037      9043
      9024      9022      9021      9025      9024      9022      9021      9029
      9024      9022      9021      9033      9024      9022      9037      9038
      9024      9022      9037      9039      9024      9022      9037      9043
      9025      9021      9022      9037      9025      9021      9029      9030
      9025      9021      9029      9031      9025      9021      9029      9032
      9025      9021      9033      9034      9025      9021      9033      9035
      9025      9021      9033      9036      9026      9025      9021      9029
      9026      9025      9021      9033      9027      9025      9021      9029
      9027      9025      9021      9033      9028      9025      9021      9029
      9028      9025      9021      9033      9029      9021      9022      9037
      9029      9021      9033      9034      9029      9021      9033      9035
      9029      9021      9033      9036      9030      9029      9021      9033
      9031      9029      9021      9033      9032      9029      9021      9033
      9033      9021      9022      9037      9037      9043      9040      9041
      9037      9043      9040      9042      9037      9043      9040      9044
      9038      9037      9043      9040      9039      9037      9043      9040
      9040      9044      9045      9046      9040      9044      9045      9047
      9040      9044      9045      9048      9041      9040      9044      9045
      9042      9040      9044      9045      9043      9040      9044      9045
      9044      9045      9048      9049      9044      9045      9048      9050
      9044      9045      9048      9056      9045      9048      9050      9051
      9045      9048      9056      9057      9045      9048      9056      9058
      9045      9048      9056      9059      9046      9045      9048      9049
      9046      9045      9048      9050      9046      9045      9048      9056
      9047      9045      9048      9049      9047      9045      9048      9050
      9047      9045      9048      9056      9048      9050      9051      9052
      9048      9050      9051      9053      9048      9056      9059      9060
      9049      9048      9050      9051      9049      9048      9056      9057
      9049      9048      9056      9058      9049      9048      9056      9059
      9050      9048      9056      9057      9050      9048      9056      9058
      9050      9048      9056      9059      9050      9051      9053      9054
      9050      9051      9053      9055      9050      9051      9053      9065
      9051      9050      9048      9056      9051      9053      9065      9066
      9051      9053      9065      9067      9051      9053      9065      9068
      9052      9051      9053      9054      9052      9051      9053      9055
      9052      9051      9053      9065      9053      9065      9068      9069
      9053      9065      9068      9070      9053      9065      9068      9071
      9054      9053      9065      9066      9054      9053      9065      9067
      9054      9053      9065      9068      9055      9053      9065      9066
      9055      9053      9065      9067      9055      9053      9065      9068
      9056      9059      9060      9061      9056      9059      9060      9062
      9057      9056      9059      9060      9058      9056      9059      9060
      9059      9060      9062      9063      9059      9060      9062      9064
      9059      9060      9062      9112      9060      9062      9112      9113
      9060      9062      9112      9114      9060      9062      9112      9115
      9061      9060      9062      9063      9061      9060      9062      9064
      9061      9060      9062      9112      9062      9112      9115      9116
      9062      9112      9115      9117      9062      9112      9115      9118
      9063      9062      9112      9113      9063      9062      9112      9114
      9063      9062      9112      9115      9064      9062      9112      9113
      9064      9062      9112      9114      9064      9062      9112      9115
      9065      9068      9071      9072      9065      9068      9071      9073
      9066      9065      9068      9069      9066      9065      9068      9070
      9066      9065      9068      9071      9067      9065      9068      9069
      9067      9065      9068      9070      9067      9065      9068      9071
      9068      9071      9073      9074      9068      9071      9073      9075
      9069      9068      9071      9072      9069      9068      9071      9073
      9070      9068      9071      9072      9070      9068      9071      9073
      9071      9073      9075      9076      9071      9073      9075      9077
      9071      9073      9075      9078      9072      9071      9073      9074
      9072      9071      9073      9075      9073      9075      9078      9079
      9073      9075      9078      9080      9074      9073      9075      9076
      9074      9073      9075      9077      9074      9073      9075      9078
      9075      9078      9080      9081      9075      9078      9080      9082
      9076      9075      9078      9079      9076      9075      9078      9080
      9077      9075      9078      9079      9077      9075      9078      9080
      9078      9080      9082      9083      9078      9080      9082      9084
      9078      9080      9082      9085      9079      9078      9080      9081
      9079      9078      9080      9082      9080      9082      9085      9086
      9080      9082      9085      9087      9081      9080      9082      9083
      9081      9080      9082      9084      9081      9080      9082      9085
      9082      9085      9087      9088      9082      9085      9087      9089
      9083      9082      9085      9086      9083      9082      9085      9087
      9084      9082      9085      9086      9084      9082      9085      9087
      9085      9087      9089      9090      9085      9087      9089      9091
      9085      9087      9089      9092      9086      9085      9087      9088
      9086      9085      9087      9089      9087      9089      9092      9093
      9087      9089      9092      9094      9088      9087      9089      9090
      9088      9087      9089      9091      9088      9087      9089      9092
      9089      9092      9094      9095      9089      9092      9094      9096
      9090      9089      9092      9093      9090      9089      9092      9094
      9091      9089      9092      9093      9091      9089      9092      9094
      9092      9094      9096      9097      9092      9094      9096      9098
      9092      9094      9096      9099      9093      9092      9094      9095
      9093      9092      9094      9096      9094      9096      9099      9100
      9094      9096      9099      9101      9094      9096      9099      9102
      9095      9094      9096      9097      9095      9094      9096      9098
      9095      9094      9096      9099      9096      9099      9102      9103
      9096      9099      9102      9104      9096      9099      9102      9105
      9097      9096      9099      9100      9097      9096      9099      9101
      9097      9096      9099      9102      9098      9096      9099      9100
      9098      9096      9099      9101      9098      9096      9099      9102
      9099      9102      9105      9106      9099      9102      9105      9107
      9099      9102      9105      9108      9100      9099      9102      9103
      9100      9099      9102      9104      9100      9099      9102      9105
      9101      9099      9102      9103      9101      9099      9102      9104
      9101      9099      9102      9105      9102      9105      9108      9109
      9102      9105      9108      9110      9102      9105      9108      9111
      9103      9102      9105      9106      9103      9102      9105      9107
      9103      9102      9105      9108      9104      9102      9105      9106
      9104      9102      9105      9107      9104      9102      9105      9108
      9106      9105      9108      9109      9106      9105      9108      9110
      9106      9105      9108      9111      9107      9105      9108      9109
      9107      9105      9108      9110      9107      9105      9108      9111
      9112      9115      9118      9119      9112      9115      9118      9120
      9112      9115      9118      9121      9113      9112      9115      9116
      9113      9112      9115      9117      9113      9112      9115      9118
      9114      9112      9115      9116      9114      9112      9115      9117
      9114      9112      9115      9118      9115      9118      9121      9122
      9115      9118      9121      9123      9115      9118      9121      9124
      9116      9115      9118      9119      9116      9115      9118      9120
      9116      9115      9118      9121      9117      9115      9118      9119
      9117      9115      9118      9120      9117      9115      9118      9121
      9118      9121      9124      9125      9118      9121      9124      9126
      9118      9121      9124      9127      9119      9118      9121      9122
      9119      9118      9121      9123      9119      9118      9121      9124
      9120      9118      9121      9122      9120      9118      9121      9123
      9120      9118      9121      9124      9121      9124      9127      9128
      9121      9124      9127      9129      9121      9124      9127      9130
      9122      9121      9124      9125      9122      9121      9124      9126
      9122      9121      9124      9127      9123      9121      9124      9125
      9123      9121      9124      9126      9123      9121      9124      9127
      9124      9127      9130      9131      9124      9127      9130      9132
      9124      9127      9130      9133      9125      9124      9127      9128
      9125      9124      9127      9129      9125      9124      9127      9130
      9126      9124      9127      9128      9126      9124      9127      9129
      9126      9124      9127      9130      9127      9130      9133      9134
      9127      9130      9133      9135      9127      9130      9133      9136
      9128      9127      9130      9131      9128      9127      9130      9132
      9128      9127      9130      9133      9129      9127      9130      9131
      9129      9127      9130      9132      9129      9127      9130      9133
      9130      9133      9136      9137      9130      9133      9136      9138
      9130      9133      9136      9139      9131      9130      9133      9134
      9131      9130      9133      9135      9131      9130      9133      9136
      9132      9130      9133      9134      9132      9130      9133      9135
      9132      9130      9133      9136      9133      9136      9139      9140
      9133      9136      9139      9141      9133      9136      9139      9142
      9134      9133      9136      9137      9134      9133      9136      9138
      9134      9133      9136      9139      9135      9133      9136      9137
      9135      9133      9136      9138      9135      9133      9136      9139
      9136      9139      9142      9143      9136      9139      9142      9144
      9136      9139      9142      9145      9137      9136      9139      9140
      9137      9136      9139      9141      9137      9136      9139      9142
      9138      9136      9139      9140      9138      9136      9139      9141
      9138      9136      9139      9142      9139      9142      9145      9146
      9139      9142      9145      9147      9139      9142      9145      9148
      9140      9139      9142      9143      9140      9139      9142      9144
      9140      9139      9142      9145      9141      9139      9142      9143
      9141      9139      9142      9144      9141      9139      9142      9145
      9142      9145      9148      9149      9142      9145      9148      9150
      9142      9145      9148      9151      9143      9142      9145      9146
      9143      9142      9145      9147      9143      9142      9145      9148
      9144      9142      9145      9146      9144      9142      9145      9147
      9144      9142      9145      9148      9145      9148      9151      9152
      9145      9148      9151      9153      9145      9148      9151      9154
      9146      9145      9148      9149      9146      9145      9148      9150
      9146      9145      9148      9151      9147      9145      9148      9149
      9147      9145      9148      9150      9147      9145      9148      9151
      9148      9151      9154      9155      9148      9151      9154      9156
      9148      9151      9154      9157      9149      9148      9151      9152
      9149      9148      9151      9153      9149      9148      9151      9154
      9150      9148      9151      9152      9150      9148      9151      9153
      9150      9148      9151      9154      9151      9154      9157      9158
      9151      9154      9157      9159      9151      9154      9157      9160
      9152      9151      9154      9155      9152      9151      9154      9156
      9152      9151      9154      9157      9153      9151      9154      9155
      9153      9151      9154      9156      9153      9151      9154      9157
      9155      9154      9157      9158      9155      9154      9157      9159
      9155      9154      9157      9160      9156      9154      9157      9158
      9156      9154      9157      9159      9156      9154      9157      9160
      9161      9174      9177      9178      9161      9174      9177      9179
      9161      9174      9177      9184      9162      9161      9166      9167
      9162      9161      9166      9168      9162      9161      9166      9169
      9162      9161      9170      9171      9162      9161      9170      9172
      9162      9161      9170      9173      9162      9161      9174      9175
      9162      9161      9174      9176      9162      9161      9174      9177
      9163      9162      9161      9166      9163      9162      9161      9170
      9163      9162      9161      9174      9164      9162      9161      9166
      9164      9162      9161      9170      9164      9162      9161      9174
      9165      9162      9161      9166      9165      9162      9161      9170
      9165      9162      9161      9174      9166      9161      9170      9171
      9166      9161      9170      9172      9166      9161      9170      9173
      9166      9161      9174      9175      9166      9161      9174      9176
      9166      9161      9174      9177      9167      9166      9161      9170
      9167      9166      9161      9174      9168      9166      9161      9170
      9168      9166      9161      9174      9169      9166      9161      9170
      9169      9166      9161      9174      9170      9161      9174      9175
      9170      9161      9174      9176      9170      9161      9174      9177
      9171      9170      9161      9174      9172      9170      9161      9174
      9173      9170      9161      9174      9174      9177      9184      9180
      9175      9174      9177      9178      9175      9174      9177      9179
      9175      9174      9177      9184      9176      9174      9177      9178
      9176      9174      9177      9179      9176      9174      9177      9184
      9177      9184      9180      9181      9177      9184      9180      9182
      9177      9184      9180      9183      9178      9177      9184      9180
      9179      9177      9184      9180      9180      9183      9185      9186
      9180      9183      9185      9187      9180      9183      9185      9190
      9181      9180      9183      9185      9182      9180      9183      9185
      9183      9185      9190      9188      9183      9185      9190      9191
      9183      9185      9190      9192      9184      9180      9183      9185
      9185      9190      9188      9189      9185      9190      9188      9240
      9185      9190      9192      9193      9185      9190      9192      9194
      9185      9190      9192      9196      9186      9185      9190      9188
      9186      9185      9190      9191      9186      9185      9190      9192
      9187      9185      9190      9188      9187      9185      9190      9191
      9187      9185      9190      9192      9188      9190      9192      9193
      9188      9190      9192      9194      9188      9190      9192      9196
      9188      9240      9242      9243      9188      9240      9242      9244
      9188      9240      9242      9245      9189      9188      9190      9191
      9189      9188      9190      9192      9189      9188      9240      9241
      9189      9188      9240      9242      9190      9188      9240      9241
      9190      9188      9240      9242      9190      9192      9194      9195
      9190      9192      9196      9197      9190      9192      9196      9198
      9191      9190      9188      9240      9191      9190      9192      9193
      9191      9190      9192      9194      9191      9190      9192      9196
      9192      9190      9188      9240      9192      9196      9198      9199
      9192      9196      9198      9200      9193      9192      9194      9195
      9193      9192      9196      9197      9193      9192      9196      9198
      9194      9192      9196      9197      9194      9192      9196      9198
      9195      9194      9192      9196      9196      9198      9200      9201
      9196      9198      9200      9202      9196      9198      9200      9203
      9197      9196      9198      9199      9197      9196      9198      9200
      9198      9200      9203      9204      9198      9200      9203      9205
      9198      9200      9203      9206      9199      9198      9200      9201
      9199      9198      9200      9202      9199      9198      9200      9203
      9200      9203      9206      9207      9200      9203      9206      9208
      9200      9203      9206      9209      9201      9200      9203      9204
      9201      9200      9203      9205      9201      9200      9203      9206
      9202      9200      9203      9204      9202      9200      9203      9205
      9202      9200      9203      9206      9203      9206      9209      9210
      9203      9206      9209      9211      9203      9206      9209      9212
      9204      9203      9206      9207      9204      9203      9206      9208
      9204      9203      9206      9209      9205      9203      9206      9207
      9205      9203      9206      9208      9205      9203      9206      9209
      9206      9209      9212      9213      9206      9209      9212      9214
      9206      9209      9212      9215      9207      9206      9209      9210
      9207      9206      9209      9211      9207      9206      9209      9212
      9208      9206      9209      9210      9208      9206      9209      9211
      9208      9206      9209      9212      9209      9212      9215      9216
      9209      9212      9215      9217      9209      9212      9215      9218
      9210      9209      9212      9213      9210      9209      9212      9214
      9210      9209      9212      9215      9211      9209      9212      9213
      9211      9209      9212      9214      9211      9209      9212      9215
      9212      9215      9218      9219      9212      9215      9218      9220
      9212      9215      9218      9221      9213      9212      9215      9216
      9213      9212      9215      9217      9213      9212      9215      9218
      9214      9212      9215      9216      9214      9212      9215      9217
      9214      9212      9215      9218      9215      9218      9221      9222
      9215      9218      9221      9223      9215      9218      9221      9224
      9216      9215      9218      9219      9216      9215      9218      9220
      9216      9215      9218      9221      9217      9215      9218      9219
      9217      9215      9218      9220      9217      9215      9218      9221
      9218      9221      9224      9225      9218      9221      9224      9226
      9218      9221      9224      9227      9219      9218      9221      9222
      9219      9218      9221      9223      9219      9218      9221      9224
      9220      9218      9221      9222      9220      9218      9221      9223
      9220      9218      9221      9224      9221      9224      9227      9228
      9221      9224      9227      9229      9221      9224      9227      9230
      9222      9221      9224      9225      9222      9221      9224      9226
      9222      9221      9224      9227      9223      9221      9224      9225
      9223      9221      9224      9226      9223      9221      9224      9227
      9224      9227      9230      9231      9224      9227      9230      9232
      9224      9227      9230      9233      9225      9224      9227      9228
      9225      9224      9227      9229      9225      9224      9227      9230
      9226      9224      9227      9228      9226      9224      9227      9229
      9226      9224      9227      9230      9227      9230      9233      9234
      9227      9230      9233      9235      9227      9230      9233      9236
      9228      9227      9230      9231      9228      9227      9230      9232
      9228      9227      9230      9233      9229      9227      9230      9231
      9229      9227      9230      9232      9229      9227      9230      9233
      9230      9233      9236      9237      9230      9233      9236      9238
      9230      9233      9236      9239      9231      9230      9233      9234
      9231      9230      9233      9235      9231      9230      9233      9236
      9232      9230      9233      9234      9232      9230      9233      9235
      9232      9230      9233      9236      9234      9233      9236      9237
      9234      9233      9236      9238      9234      9233      9236      9239
      9235      9233      9236      9237      9235      9233      9236      9238
      9235      9233      9236      9239      9240      9242      9245      9246
      9240      9242      9245      9247      9240      9242      9245      9248
      9241      9240      9242      9243      9241      9240      9242      9244
      9241      9240      9242      9245      9242      9245      9248      9249
      9242      9245      9248      9250      9242      9245      9248      9251
      9243      9242      9245      9246      9243      9242      9245      9247
      9243      9242      9245      9248      9244      9242      9245      9246
      9244      9242      9245      9247      9244      9242      9245      9248
      9245      9248      9251      9252      9245      9248      9251      9253
      9245      9248      9251      9254      9246      9245      9248      9249
      9246      9245      9248      9250      9246      9245      9248      9251
      9247      9245      9248      9249      9247      9245      9248      9250
      9247      9245      9248      9251      9248      9251      9254      9255
      9248      9251      9254      9256      9248      9251      9254      9257
      9249      9248      9251      9252      9249      9248      9251      9253
      9249      9248      9251      9254      9250      9248      9251      9252
      9250      9248      9251      9253      9250      9248      9251      9254
      9251      9254      9257      9258      9251      9254      9257      9259
      9251      9254      9257      9260      9252      9251      9254      9255
      9252      9251      9254      9256      9252      9251      9254      9257
      9253      9251      9254      9255      9253      9251      9254      9256
      9253      9251      9254      9257      9254      9257      9260      9261
      9254      9257      9260      9262      9254      9257      9260      9263
      9255      9254      9257      9258      9255      9254      9257      9259
      9255      9254      9257      9260      9256      9254      9257      9258
      9256      9254      9257      9259      9256      9254      9257      9260
      9257      9260      9263      9264      9257      9260      9263      9265
      9258      9257      9260      9261      9258      9257      9260      9262
      9258      9257      9260      9263      9259      9257      9260      9261
      9259      9257      9260      9262      9259      9257      9260      9263
      9260      9263      9265      9266      9260      9263      9265      9267
      9261      9260      9263      9264      9261      9260      9263      9265
      9262      9260      9263      9264      9262      9260      9263      9265
      9263      9265      9267      9268      9263      9265      9267      9269
      9263      9265      9267      9270      9264      9263      9265      9266
      9264      9263      9265      9267      9265      9267      9270      9271
      9265      9267      9270      9272      9265      9267      9270      9273
      9266      9265      9267      9268      9266      9265      9267      9269
      9266      9265      9267      9270      9267      9270      9273      9274
      9267      9270      9273      9275      9267      9270      9273      9276
      9268      9267      9270      9271      9268      9267      9270      9272
      9268      9267      9270      9273      9269      9267      9270      9271
      9269      9267      9270      9272      9269      9267      9270      9273
      9270      9273      9276      9277      9270      9273      9276      9278
      9270      9273      9276      9279      9271      9270      9273      9274
      9271      9270      9273      9275      9271      9270      9273      9276
      9272      9270      9273      9274      9272      9270      9273      9275
      9272      9270      9273      9276      9273      9276      9279      9280
      9273      9276      9279      9281      9273      9276      9279      9282
      9274      9273      9276      9277      9274      9273      9276      9278
      9274      9273      9276      9279      9275      9273      9276      9277
      9275      9273      9276      9278      9275      9273      9276      9279
      9276      9279      9282      9283      9276      9279      9282      9284
      9276      9279      9282      9285      9277      9276      9279      9280
      9277      9276      9279      9281      9277      9276      9279      9282
      9278      9276      9279      9280      9278      9276      9279      9281
      9278      9276      9279      9282      9279      9282      9285      9286
      9279      9282      9285      9287      9279      9282      9285      9288
      9280      9279      9282      9283      9280      9279      9282      9284
      9280      9279      9282      9285      9281      9279      9282      9283
      9281      9279      9282      9284      9281      9279      9282      9285
      9282      9285      9288      9289      9282      9285      9288      9290
      9282      9285      9288      9291      9283      9282      9285      9286
      9283      9282      9285      9287      9283      9282      9285      9288
      9284      9282      9285      9286      9284      9282      9285      9287
      9284      9282      9285      9288      9286      9285      9288      9289
      9286      9285      9288      9290      9286      9285      9288      9291
      9287      9285      9288      9289      9287      9285      9288      9290
      9287      9285      9288      9291      9292      9296      9299      9300
      9292      9296      9299      9301      9292      9296      9299      9305
      9293      9292      9296      9297      9293      9292      9296      9298
      9293      9292      9296      9299      9294      9292      9296      9297
      9294      9292      9296      9298      9294      9292      9296      9299
      9295      9292      9296      9297      9295      9292      9296      9298
      9295      9292      9296      9299      9296      9299      9305      9302
      9297      9296      9299      9300      9297      9296      9299      9301
      9297      9296      9299      9305      9298      9296      9299      9300
      9298      9296      9299      9301      9298      9296      9299      9305
      9299      9305      9302      9303      9299      9305      9302      9304
      9299      9305      9302      9306      9300      9299      9305      9302
      9301      9299      9305      9302      9302      9306      9307      9308
      9302      9306      9307      9309      9302      9306      9307      9310
      9303      9302      9306      9307      9304      9302      9306      9307
      9305      9302      9306      9307      9306      9307      9310      9311
      9306      9307      9310      9312      9306      9307      9310      9318
      9307      9310      9312      9313      9307      9310      9318      9319
      9307      9310      9318      9320      9307      9310      9318      9321
      9308      9307      9310      9311      9308      9307      9310      9312
      9308      9307      9310      9318      9309      9307      9310      9311
      9309      9307      9310      9312      9309      9307      9310      9318
      9310      9312      9313      9314      9310      9312      9313      9315
      9310      9318      9321      9322      9311      9310      9312      9313
      9311      9310      9318      9319      9311      9310      9318      9320
      9311      9310      9318      9321      9312      9310      9318      9319
      9312      9310      9318      9320      9312      9310      9318      9321
      9312      9313      9315      9316      9312      9313      9315      9317
      9312      9313      9315      9327      9313      9312      9310      9318
      9313      9315      9327      9328      9313      9315      9327      9329
      9313      9315      9327      9330      9314      9313      9315      9316
      9314      9313      9315      9317      9314      9313      9315      9327
      9315      9327      9330      9331      9315      9327      9330      9332
      9315      9327      9330      9333      9316      9315      9327      9328
      9316      9315      9327      9329      9316      9315      9327      9330
      9317      9315      9327      9328      9317      9315      9327      9329
      9317      9315      9327      9330      9318      9321      9322      9323
      9318      9321      9322      9324      9319      9318      9321      9322
      9320      9318      9321      9322      9321      9322      9324      9325
      9321      9322      9324      9326      9321      9322      9324      9374
      9322      9324      9374      9375      9322      9324      9374      9376
      9322      9324      9374      9377      9323      9322      9324      9325
      9323      9322      9324      9326      9323      9322      9324      9374
      9324      9374      9377      9378      9324      9374      9377      9379
      9324      9374      9377      9380      9325      9324      9374      9375
      9325      9324      9374      9376      9325      9324      9374      9377
      9326      9324      9374      9375      9326      9324      9374      9376
      9326      9324      9374      9377      9327      9330      9333      9334
      9327      9330      9333      9335      9328      9327      9330      9331
      9328      9327      9330      9332      9328      9327      9330      9333
      9329      9327      9330      9331      9329      9327      9330      9332
      9329      9327      9330      9333      9330      9333      9335      9336
      9330      9333      9335      9337      9331      9330      9333      9334
      9331      9330      9333      9335      9332      9330      9333      9334
      9332      9330      9333      9335      9333      9335      9337      9338
      9333      9335      9337      9339      9333      9335      9337      9340
      9334      9333      9335      9336      9334      9333      9335      9337
      9335      9337      9340      9341      9335      9337      9340      9342
      9336      9335      9337      9338      9336      9335      9337      9339
      9336      9335      9337      9340      9337      9340      9342      9343
      9337      9340      9342      9344      9338      9337      9340      9341
      9338      9337      9340      9342      9339      9337      9340      9341
      9339      9337      9340      9342      9340      9342      9344      9345
      9340      9342      9344      9346      9340      9342      9344      9347
      9341      9340      9342      9343      9341      9340      9342      9344
      9342      9344      9347      9348      9342      9344      9347      9349
      9343      9342      9344      9345      9343      9342      9344      9346
      9343      9342      9344      9347      9344      9347      9349      9350
      9344      9347      9349      9351      9345      9344      9347      9348
      9345      9344      9347      9349      9346      9344      9347      9348
      9346      9344      9347      9349      9347      9349      9351      9352
      9347      9349      9351      9353      9347      9349      9351      9354
      9348      9347      9349      9350      9348      9347      9349      9351
      9349      9351      9354      9355      9349      9351      9354      9356
      9350      9349      9351      9352      9350      9349      9351      9353
      9350      9349      9351      9354      9351      9354      9356      9357
      9351      9354      9356      9358      9352      9351      9354      9355
      9352      9351      9354      9356      9353      9351      9354      9355
      9353      9351      9354      9356      9354      9356      9358      9359
      9354      9356      9358      9360      9354      9356      9358      9361
      9355      9354      9356      9357      9355      9354      9356      9358
      9356      9358      9361      9362      9356      9358      9361      9363
      9356      9358      9361      9364      9357      9356      9358      9359
      9357      9356      9358      9360      9357      9356      9358      9361
      9358      9361      9364      9365      9358      9361      9364      9366
      9358      9361      9364      9367      9359      9358      9361      9362
      9359      9358      9361      9363      9359      9358      9361      9364
      9360      9358      9361      9362      9360      9358      9361      9363
      9360      9358      9361      9364      9361      9364      9367      9368
      9361      9364      9367      9369      9361      9364      9367      9370
      9362      9361      9364      9365      9362      9361      9364      9366
      9362      9361      9364      9367      9363      9361      9364      9365
      9363      9361      9364      9366      9363      9361      9364      9367
      9364      9367      9370      9371      9364      9367      9370      9372
      9364      9367      9370      9373      9365      9364      9367      9368
      9365      9364      9367      9369      9365      9364      9367      9370
      9366      9364      9367      9368      9366      9364      9367      9369
      9366      9364      9367      9370      9368      9367      9370      9371
      9368      9367      9370      9372      9368      9367      9370      9373
      9369      9367      9370      9371      9369      9367      9370      9372
      9369      9367      9370      9373      9374      9377      9380      9381
      9374      9377      9380      9382      9374      9377      9380      9383
      9375      9374      9377      9378      9375      9374      9377      9379
      9375      9374      9377      9380      9376      9374      9377      9378
      9376      9374      9377      9379      9376      9374      9377      9380
      9377      9380      9383      9384      9377      9380      9383      9385
      9377      9380      9383      9386      9378      9377      9380      9381
      9378      9377      9380      9382      9378      9377      9380      9383
      9379      9377      9380      9381      9379      9377      9380      9382
      9379      9377      9380      9383      9380      9383      9386      9387
      9380      9383      9386      9388      9380      9383      9386      9389
      9381      9380      9383      9384      9381      9380      9383      9385
      9381      9380      9383      9386      9382      9380      9383      9384
      9382      9380      9383      9385      9382      9380      9383      9386
      9383      9386      9389      9390      9383      9386      9389      9391
      9383      9386      9389      9392      9384      9383      9386      9387
      9384      9383      9386      9388      9384      9383      9386      9389
      9385      9383      9386      9387      9385      9383      9386      9388
      9385      9383      9386      9389      9386      9389      9392      9393
      9386      9389      9392      9394      9386      9389      9392      9395
      9387      9386      9389      9390      9387      9386      9389      9391
      9387      9386      9389      9392      9388      9386      9389      9390
      9388      9386      9389      9391      9388      9386      9389      9392
      9389      9392      9395      9396      9389      9392      9395      9397
      9389      9392      9395      9398      9390      9389      9392      9393
      9390      9389      9392      9394      9390      9389      9392      9395
      9391      9389      9392      9393      9391      9389      9392      9394
      9391      9389      9392      9395      9392      9395      9398      9399
      9392      9395      9398      9400      9392      9395      9398      9401
      9393      9392      9395      9396      9393      9392      9395      9397
      9393      9392      9395      9398      9394      9392      9395      9396
      9394      9392      9395      9397      9394      9392      9395      9398
      9395      9398      9401      9402      9395      9398      9401      9403
      9395      9398      9401      9404      9396      9395      9398      9399
      9396      9395      9398      9400      9396      9395      9398      9401
      9397      9395      9398      9399      9397      9395      9398      9400
      9397      9395      9398      9401      9398      9401      9404      9405
      9398      9401      9404      9406      9398      9401      9404      9407
      9399      9398      9401      9402      9399      9398      9401      9403
      9399      9398      9401      9404      9400      9398      9401      9402
      9400      9398      9401      9403      9400      9398      9401      9404
      9401      9404      9407      9408      9401      9404      9407      9409
      9401      9404      9407      9410      9402      9401      9404      9405
      9402      9401      9404      9406      9402      9401      9404      9407
      9403      9401      9404      9405      9403      9401      9404      9406
      9403      9401      9404      9407      9404      9407      9410      9411
      9404      9407      9410      9412      9404      9407      9410      9413
      9405      9404      9407      9408      9405      9404      9407      9409
      9405      9404      9407      9410      9406      9404      9407      9408
      9406      9404      9407      9409      9406      9404      9407      9410
      9407      9410      9413      9414      9407      9410      9413      9415
      9407      9410      9413      9416      9408      9407      9410      9411
      9408      9407      9410      9412      9408      9407      9410      9413
      9409      9407      9410      9411      9409      9407      9410      9412
      9409      9407      9410      9413      9410      9413      9416      9417
      9410      9413      9416      9418      9410      9413      9416      9419
      9411      9410      9413      9414      9411      9410      9413      9415
      9411      9410      9413      9416      9412      9410      9413      9414
      9412      9410      9413      9415      9412      9410      9413      9416
      9413      9416      9419      9420      9413      9416      9419      9421
      9413      9416      9419      9422      9414      9413      9416      9417
      9414      9413      9416      9418      9414      9413      9416      9419
      9415      9413      9416      9417      9415      9413      9416      9418
      9415      9413      9416      9419      9417      9416      9419      9420
      9417      9416      9419      9421      9417      9416      9419      9422
      9418      9416      9419      9420      9418      9416      9419      9421
      9418      9416      9419      9422      9423      9436      9439      9440
      9423      9436      9439      9441      9423      9436      9439      9446
      9424      9423      9428      9429      9424      9423      9428      9430
      9424      9423      9428      9431      9424      9423      9432      9433
      9424      9423      9432      9434      9424      9423      9432      9435
      9424      9423      9436      9437      9424      9423      9436      9438
      9424      9423      9436      9439      9425      9424      9423      9428
      9425      9424      9423      9432      9425      9424      9423      9436
      9426      9424      9423      9428      9426      9424      9423      9432
      9426      9424      9423      9436      9427      9424      9423      9428
      9427      9424      9423      9432      9427      9424      9423      9436
      9428      9423      9432      9433      9428      9423      9432      9434
      9428      9423      9432      9435      9428      9423      9436      9437
      9428      9423      9436      9438      9428      9423      9436      9439
      9429      9428      9423      9432      9429      9428      9423      9436
      9430      9428      9423      9432      9430      9428      9423      9436
      9431      9428      9423      9432      9431      9428      9423      9436
      9432      9423      9436      9437      9432      9423      9436      9438
      9432      9423      9436      9439      9433      9432      9423      9436
      9434      9432      9423      9436      9435      9432      9423      9436
      9436      9439      9446      9442      9437      9436      9439      9440
      9437      9436      9439      9441      9437      9436      9439      9446
      9438      9436      9439      9440      9438      9436      9439      9441
      9438      9436      9439      9446      9439      9446      9442      9443
      9439      9446      9442      9444      9439      9446      9442      9445
      9440      9439      9446      9442      9441      9439      9446      9442
      9442      9445      9447      9448      9442      9445      9447      9449
      9442      9445      9447      9452      9443      9442      9445      9447
      9444      9442      9445      9447      9445      9447      9452      9450
      9445      9447      9452      9453      9445      9447      9452      9454
      9446      9442      9445      9447      9447      9452      9450      9451
      9447      9452      9450      9502      9447      9452      9454      9455
      9447      9452      9454      9456      9447      9452      9454      9458
      9448      9447      9452      9450      9448      9447      9452      9453
      9448      9447      9452      9454      9449      9447      9452      9450
      9449      9447      9452      9453      9449      9447      9452      9454
      9450      9452      9454      9455      9450      9452      9454      9456
      9450      9452      9454      9458      9450      9502      9504      9505
      9450      9502      9504      9506      9450      9502      9504      9507
      9451      9450      9452      9453      9451      9450      9452      9454
      9451      9450      9502      9503      9451      9450      9502      9504
      9452      9450      9502      9503      9452      9450      9502      9504
      9452      9454      9456      9457      9452      9454      9458      9459
      9452      9454      9458      9460      9453      9452      9450      9502
      9453      9452      9454      9455      9453      9452      9454      9456
      9453      9452      9454      9458      9454      9452      9450      9502
      9454      9458      9460      9461      9454      9458      9460      9462
      9455      9454      9456      9457      9455      9454      9458      9459
      9455      9454      9458      9460      9456      9454      9458      9459
      9456      9454      9458      9460      9457      9456      9454      9458
      9458      9460      9462      9463      9458      9460      9462      9464
      9458      9460      9462      9465      9459      9458      9460      9461
      9459      9458      9460      9462      9460      9462      9465      9466
      9460      9462      9465      9467      9460      9462      9465      9468
      9461      9460      9462      9463      9461      9460      9462      9464
      9461      9460      9462      9465      9462      9465      9468      9469
      9462      9465      9468      9470      9462      9465      9468      9471
      9463      9462      9465      9466      9463      9462      9465      9467
      9463      9462      9465      9468      9464      9462      9465      9466
      9464      9462      9465      9467      9464      9462      9465      9468
      9465      9468      9471      9472      9465      9468      9471      9473
      9465      9468      9471      9474      9466      9465      9468      9469
      9466      9465      9468      9470      9466      9465      9468      9471
      9467      9465      9468      9469      9467      9465      9468      9470
      9467      9465      9468      9471      9468      9471      9474      9475
      9468      9471      9474      9476      9468      9471      9474      9477
      9469      9468      9471      9472      9469      9468      9471      9473
      9469      9468      9471      9474      9470      9468      9471      9472
      9470      9468      9471      9473      9470      9468      9471      9474
      9471      9474      9477      9478      9471      9474      9477      9479
      9471      9474      9477      9480      9472      9471      9474      9475
      9472      9471      9474      9476      9472      9471      9474      9477
      9473      9471      9474      9475      9473      9471      9474      9476
      9473      9471      9474      9477      9474      9477      9480      9481
      9474      9477      9480      9482      9474      9477      9480      9483
      9475      9474      9477      9478      9475      9474      9477      9479
      9475      9474      9477      9480      9476      9474      9477      9478
      9476      9474      9477      9479      9476      9474      9477      9480
      9477      9480      9483      9484      9477      9480      9483      9485
      9477      9480      9483      9486      9478      9477      9480      9481
      9478      9477      9480      9482      9478      9477      9480      9483
      9479      9477      9480      9481      9479      9477      9480      9482
      9479      9477      9480      9483      9480      9483      9486      9487
      9480      9483      9486      9488      9480      9483      9486      9489
      9481      9480      9483      9484      9481      9480      9483      9485
      9481      9480      9483      9486      9482      9480      9483      9484
      9482      9480      9483      9485      9482      9480      9483      9486
      9483      9486      9489      9490      9483      9486      9489      9491
      9483      9486      9489      9492      9484      9483      9486      9487
      9484      9483      9486      9488      9484      9483      9486      9489
      9485      9483      9486      9487      9485      9483      9486      9488
      9485      9483      9486      9489      9486      9489      9492      9493
      9486      9489      9492      9494      9486      9489      9492      9495
      9487      9486      9489      9490      9487      9486      9489      9491
      9487      9486      9489      9492      9488      9486      9489      9490
      9488      9486      9489      9491      9488      9486      9489      9492
      9489      9492      9495      9496      9489      9492      9495      9497
      9489      9492      9495      9498      9490      9489      9492      9493
      9490      9489      9492      9494      9490      9489      9492      9495
      9491      9489      9492      9493      9491      9489      9492      9494
      9491      9489      9492      9495      9492      9495      9498      9499
      9492      9495      9498      9500      9492      9495      9498      9501
      9493      9492      9495      9496      9493      9492      9495      9497
      9493      9492      9495      9498      9494      9492      9495      9496
      9494      9492      9495      9497      9494      9492      9495      9498
      9496      9495      9498      9499      9496      9495      9498      9500
      9496      9495      9498      9501      9497      9495      9498      9499
      9497      9495      9498      9500      9497      9495      9498      9501
      9502      9504      9507      9508      9502      9504      9507      9509
      9502      9504      9507      9510      9503      9502      9504      9505
      9503      9502      9504      9506      9503      9502      9504      9507
      9504      9507      9510      9511      9504      9507      9510      9512
      9504      9507      9510      9513      9505      9504      9507      9508
      9505      9504      9507      9509      9505      9504      9507      9510
      9506      9504      9507      9508      9506      9504      9507      9509
      9506      9504      9507      9510      9507      9510      9513      9514
      9507      9510      9513      9515      9507      9510      9513      9516
      9508      9507      9510      9511      9508      9507      9510      9512
      9508      9507      9510      9513      9509      9507      9510      9511
      9509      9507      9510      9512      9509      9507      9510      9513
      9510      9513      9516      9517      9510      9513      9516      9518
      9510      9513      9516      9519      9511      9510      9513      9514
      9511      9510      9513      9515      9511      9510      9513      9516
      9512      9510      9513      9514      9512      9510      9513      9515
      9512      9510      9513      9516      9513      9516      9519      9520
      9513      9516      9519      9521      9513      9516      9519      9522
      9514      9513      9516      9517      9514      9513      9516      9518
      9514      9513      9516      9519      9515      9513      9516      9517
      9515      9513      9516      9518      9515      9513      9516      9519
      9516      9519      9522      9523      9516      9519      9522      9524
      9516      9519      9522      9525      9517      9516      9519      9520
      9517      9516      9519      9521      9517      9516      9519      9522
      9518      9516      9519      9520      9518      9516      9519      9521
      9518      9516      9519      9522      9519      9522      9525      9526
      9519      9522      9525      9527      9520      9519      9522      9523
      9520      9519      9522      9524      9520      9519      9522      9525
      9521      9519      9522      9523      9521      9519      9522      9524
      9521      9519      9522      9525      9522      9525      9527      9528
      9522      9525      9527      9529      9523      9522      9525      9526
      9523      9522      9525      9527      9524      9522      9525      9526
      9524      9522      9525      9527      9525      9527      9529      9530
      9525      9527      9529      9531      9525      9527      9529      9532
      9526      9525      9527      9528      9526      9525      9527      9529
      9527      9529      9532      9533      9527      9529      9532      9534
      9527      9529      9532      9535      9528      9527      9529      9530
      9528      9527      9529      9531      9528      9527      9529      9532
      9529      9532      9535      9536      9529      9532      9535      9537
      9529      9532      9535      9538      9530      9529      9532      9533
      9530      9529      9532      9534      9530      9529      9532      9535
      9531      9529      9532      9533      9531      9529      9532      9534
      9531      9529      9532      9535      9532      9535      9538      9539
      9532      9535      9538      9540      9532      9535      9538      9541
      9533      9532      9535      9536      9533      9532      9535      9537
      9533      9532      9535      9538      9534      9532      9535      9536
      9534      9532      9535      9537      9534      9532      9535      9538
      9535      9538      9541      9542      9535      9538      9541      9543
      9535      9538      9541      9544      9536      9535      9538      9539
      9536      9535      9538      9540      9536      9535      9538      9541
      9537      9535      9538      9539      9537      9535      9538      9540
      9537      9535      9538      9541      9538      9541      9544      9545
      9538      9541      9544      9546      9538      9541      9544      9547
      9539      9538      9541      9542      9539      9538      9541      9543
      9539      9538      9541      9544      9540      9538      9541      9542
      9540      9538      9541      9543      9540      9538      9541      9544
      9541      9544      9547      9548      9541      9544      9547      9549
      9541      9544      9547      9550      9542      9541      9544      9545
      9542      9541      9544      9546      9542      9541      9544      9547
      9543      9541      9544      9545      9543      9541      9544      9546
      9543      9541      9544      9547      9544      9547      9550      9551
      9544      9547      9550      9552      9544      9547      9550      9553
      9545      9544      9547      9548      9545      9544      9547      9549
      9545      9544      9547      9550      9546      9544      9547      9548
      9546      9544      9547      9549      9546      9544      9547      9550
      9548      9547      9550      9551      9548      9547      9550      9552
      9548      9547      9550      9553      9549      9547      9550      9551
      9549      9547      9550      9552      9549      9547      9550      9553
      9554      9558      9561      9562      9554      9558      9561      9592
      9554      9600      9597      9592      9554      9600      9597      9598
      9554      9600      9597      9599      9555      9554      9556      9557
      9555      9554      9558      9559      9555      9554      9558      9560
      9555      9554      9558      9561      9555      9554      9600      9597
      9555      9554      9600      9601      9555      9554      9600      9602
      9556      9554      9558      9559      9556      9554      9558      9560
      9556      9554      9558      9561      9556      9554      9600      9597
      9556      9554      9600      9601      9556      9554      9600      9602
      9557      9556      9554      9558      9557      9556      9554      9600
      9558      9554      9600      9597      9558      9554      9600      9601
      9558      9554      9600      9602      9558      9561      9562      9563
      9558      9561      9562      9564      9558      9561      9592      9590
      9558      9561      9592      9593      9558      9561      9592      9597
      9559      9558      9554      9600      9559      9558      9561      9562
      9559      9558      9561      9592      9560      9558      9554      9600
      9560      9558      9561      9562      9560      9558      9561      9592
      9561      9558      9554      9600      9561      9562      9564      9565
      9561      9562      9564      9566      9561      9562      9564      9567
      9561      9592      9590      9567      9561      9592      9590      9587
      9561      9592      9590      9591      9561      9592      9593      9594
      9561      9592      9593      9595      9561      9592      9593      9596
      9561      9592      9597      9598      9561      9592      9597      9599
      9561      9592      9597      9600      9562      9561      9592      9590
      9562      9561      9592      9593      9562      9561      9592      9597
      9562      9564      9567      9568      9562      9564      9567      9569
      9562      9564      9567      9590      9563      9562      9561      9592
      9563      9562      9564      9565      9563      9562      9564      9566
      9563      9562      9564      9567      9564      9562      9561      9592
      9564      9567      9569      9570      9564      9567      9569      9571
      9564      9567      9569      9579      9564      9567      9590      9587
      9564      9567      9590      9591      9564      9567      9590      9592
      9565      9564      9567      9568      9565      9564      9567      9569
      9565      9564      9567      9590      9566      9564      9567      9568
      9566      9564      9567      9569      9566      9564      9567      9590
      9567      9569      9571      9572      9567      9569      9571      9573
      9567      9569      9571      9574      9567      9569      9579      9577
      9567      9569      9579      9580      9567      9569      9579      9584
      9567      9590      9587      9584      9567      9590      9587      9588
      9567      9590      9587      9589      9567      9590      9592      9593
      9567      9590      9592      9597      9568      9567      9569      9570
      9568      9567      9569      9571      9568      9567      9569      9579
      9568      9567      9590      9587      9568      9567      9590      9591
      9568      9567      9590      9592      9569      9567      9590      9587
      9569      9567      9590      9591      9569      9567      9590      9592
      9569      9571      9574      9575      9569      9571      9574      9576
      9569      9571      9574      9577      9569      9579      9577      9574
      9569      9579      9577      9578      9569      9579      9577      9603
      9569      9579      9580      9581      9569      9579      9580      9582
      9569      9579      9580      9583      9569      9579      9584      9585
      9569      9579      9584      9586      9569      9579      9584      9587
      9570      9569      9567      9590      9570      9569      9571      9572
      9570      9569      9571      9573      9570      9569      9571      9574
      9570      9569      9579      9577      9570      9569      9579      9580
      9570      9569      9579      9584      9571      9569      9567      9590
      9571      9569      9579      9577      9571      9569      9579      9580
      9571      9569      9579      9584      9571      9574      9577      9578
      9571      9574      9577      9579      9571      9574      9577      9603
      9572      9571      9569      9579      9572      9571      9574      9575
      9572      9571      9574      9576      9572      9571      9574      9577
      9573      9571      9569      9579      9573      9571      9574      9575
      9573      9571      9574      9576      9573      9571      9574      9577
      9574      9571      9569      9579      9574      9577      9579      9580
      9574      9577      9579      9584      9574      9577      9603      9604
      9574      9577      9603      9605      9574      9577      9603      9609
      9575      9574      9577      9578      9575      9574      9577      9579
      9575      9574      9577      9603      9576      9574      9577      9578
      9576      9574      9577      9579      9576      9574      9577      9603
      9577      9579      9580      9581      9577      9579      9580      9582
      9577      9579      9580      9583      9577      9579      9584      9585
      9577      9579      9584      9586      9577      9579      9584      9587
      9577      9603      9605      9606      9577      9603      9605      9607
      9577      9603      9605      9608      9577      9603      9609      9610
      9577      9603      9609      9611      9577      9603      9609      9612
      9578      9577      9579      9580      9578      9577      9579      9584
      9578      9577      9603      9604      9578      9577      9603      9605
      9578      9577      9603      9609      9579      9569      9567      9590
      9579      9577      9603      9604      9579      9577      9603      9605
      9579      9577      9603      9609      9579      9584      9587      9588
      9579      9584      9587      9589      9579      9584      9587      9590
      9580      9579      9577      9603      9580      9579      9584      9585
      9580      9579      9584      9586      9580      9579      9584      9587
      9581      9580      9579      9584      9582      9580      9579      9584
      9583      9580      9579      9584      9584      9579      9577      9603
      9584      9587      9590      9591      9584      9587      9590      9592
      9585      9584      9587      9588      9585      9584      9587      9589
      9585      9584      9587      9590      9586      9584      9587      9588
      9586      9584      9587      9589      9586      9584      9587      9590
      9587      9590      9592      9593      9587      9590      9592      9597
      9588      9587      9590      9591      9588      9587      9590      9592
      9589      9587      9590      9591      9589      9587      9590      9592
      9590      9592      9593      9594      9590      9592      9593      9595
      9590      9592      9593      9596      9590      9592      9597      9598
      9590      9592      9597      9599      9590      9592      9597      9600
      9591      9590      9592      9593      9591      9590      9592      9597
      9592      9597      9600      9601      9592      9597      9600      9602
      9593      9592      9597      9598      9593      9592      9597      9599
      9593      9592      9597      9600      9594      9593      9592      9597
      9595      9593      9592      9597      9596      9593      9592      9597
      9598      9597      9600      9601      9598      9597      9600      9602
      9599      9597      9600      9601      9599      9597      9600      9602
      9603      9609      9612      9613      9603      9609      9612      9614
      9603      9609      9612      9615      9604      9603      9605      9606
      9604      9603      9605      9607      9604      9603      9605      9608
      9604      9603      9609      9610      9604      9603      9609      9611
      9604      9603      9609      9612      9605      9603      9609      9610
      9605      9603      9609      9611      9605      9603      9609      9612
      9606      9605      9603      9609      9607      9605      9603      9609
      9608      9605      9603      9609      9609      9612      9615      9616
      9609      9612      9615      9617      9609      9612      9615      9618
      9610      9609      9612      9613      9610      9609      9612      9614
      9610      9609      9612      9615      9611      9609      9612      9613
      9611      9609      9612      9614      9611      9609      9612      9615
      9612      9615      9618      9619      9612      9615      9618      9620
      9612      9615      9618      9624      9613      9612      9615      9616
      9613      9612      9615      9617      9613      9612      9615      9618
      9614      9612      9615      9616      9614      9612      9615      9617
      9614      9612      9615      9618      9615      9618      9620      9621
      9615      9618      9620      9622      9615      9618      9620      9623
      9615      9618      9624      9625      9615      9618      9624      9626
      9615      9618      9624      9627      9616      9615      9618      9619
      9616      9615      9618      9620      9616      9615      9618      9624
      9617      9615      9618      9619      9617      9615      9618      9620
      9617      9615      9618      9624      9619      9618      9620      9621
      9619      9618      9620      9622      9619      9618      9620      9623
      9619      9618      9624      9625      9619      9618      9624      9626
      9619      9618      9624      9627      9620      9618      9624      9625
      9620      9618      9624      9626      9620      9618      9624      9627
      9621      9620      9618      9624      9622      9620      9618      9624
      9623      9620      9618      9624      9628      9632      9635      9636
      9628      9632      9635      9637      9628      9632      9635      9641
      9629      9628      9632      9633      9629      9628      9632      9634
      9629      9628      9632      9635      9630      9628      9632      9633
      9630      9628      9632      9634      9630      9628      9632      9635
      9631      9628      9632      9633      9631      9628      9632      9634
      9631      9628      9632      9635      9632      9635      9641      9638
      9633      9632      9635      9636      9633      9632      9635      9637
      9633      9632      9635      9641      9634      9632      9635      9636
      9634      9632      9635      9637      9634      9632      9635      9641
      9635      9641      9638      9639      9635      9641      9638      9640
      9635      9641      9638      9642      9636      9635      9641      9638
      9637      9635      9641      9638      9638      9642      9643      9644
      9638      9642      9643      9645      9638      9642      9643      9646
      9639      9638      9642      9643      9640      9638      9642      9643
      9641      9638      9642      9643      9642      9643      9646      9647
      9642      9643      9646      9648      9642      9643      9646      9654
      9643      9646      9648      9649      9643      9646      9654      9655
      9643      9646      9654      9656      9643      9646      9654      9657
      9644      9643      9646      9647      9644      9643      9646      9648
      9644      9643      9646      9654      9645      9643      9646      9647
      9645      9643      9646      9648      9645      9643      9646      9654
      9646      9648      9649      9650      9646      9648      9649      9651
      9646      9654      9657      9658      9647      9646      9648      9649
      9647      9646      9654      9655      9647      9646      9654      9656
      9647      9646      9654      9657      9648      9646      9654      9655
      9648      9646      9654      9656      9648      9646      9654      9657
      9648      9649      9651      9652      9648      9649      9651      9653
      9648      9649      9651      9663      9649      9648      9646      9654
      9649      9651      9663      9664      9649      9651      9663      9665
      9649      9651      9663      9666      9650      9649      9651      9652
      9650      9649      9651      9653      9650      9649      9651      9663
      9651      9663      9666      9667      9651      9663      9666      9668
      9651      9663      9666      9669      9652      9651      9663      9664
      9652      9651      9663      9665      9652      9651      9663      9666
      9653      9651      9663      9664      9653      9651      9663      9665
      9653      9651      9663      9666      9654      9657      9658      9659
      9654      9657      9658      9660      9655      9654      9657      9658
      9656      9654      9657      9658      9657      9658      9660      9661
      9657      9658      9660      9662      9657      9658      9660      9710
      9658      9660      9710      9711      9658      9660      9710      9712
      9658      9660      9710      9713      9659      9658      9660      9661
      9659      9658      9660      9662      9659      9658      9660      9710
      9660      9710      9713      9714      9660      9710      9713      9715
      9660      9710      9713      9716      9661      9660      9710      9711
      9661      9660      9710      9712      9661      9660      9710      9713
      9662      9660      9710      9711      9662      9660      9710      9712
      9662      9660      9710      9713      9663      9666      9669      9670
      9663      9666      9669      9671      9664      9663      9666      9667
      9664      9663      9666      9668      9664      9663      9666      9669
      9665      9663      9666      9667      9665      9663      9666      9668
      9665      9663      9666      9669      9666      9669      9671      9672
      9666      9669      9671      9673      9667      9666      9669      9670
      9667      9666      9669      9671      9668      9666      9669      9670
      9668      9666      9669      9671      9669      9671      9673      9674
      9669      9671      9673      9675      9669      9671      9673      9676
      9670      9669      9671      9672      9670      9669      9671      9673
      9671      9673      9676      9677      9671      9673      9676      9678
      9672      9671      9673      9674      9672      9671      9673      9675
      9672      9671      9673      9676      9673      9676      9678      9679
      9673      9676      9678      9680      9674      9673      9676      9677
      9674      9673      9676      9678      9675      9673      9676      9677
      9675      9673      9676      9678      9676      9678      9680      9681
      9676      9678      9680      9682      9676      9678      9680      9683
      9677      9676      9678      9679      9677      9676      9678      9680
      9678      9680      9683      9684      9678      9680      9683      9685
      9679      9678      9680      9681      9679      9678      9680      9682
      9679      9678      9680      9683      9680      9683      9685      9686
      9680      9683      9685      9687      9681      9680      9683      9684
      9681      9680      9683      9685      9682      9680      9683      9684
      9682      9680      9683      9685      9683      9685      9687      9688
      9683      9685      9687      9689      9683      9685      9687      9690
      9684      9683      9685      9686      9684      9683      9685      9687
      9685      9687      9690      9691      9685      9687      9690      9692
      9686      9685      9687      9688      9686      9685      9687      9689
      9686      9685      9687      9690      9687      9690      9692      9693
      9687      9690      9692      9694      9688      9687      9690      9691
      9688      9687      9690      9692      9689      9687      9690      9691
      9689      9687      9690      9692      9690      9692      9694      9695
      9690      9692      9694      9696      9690      9692      9694      9697
      9691      9690      9692      9693      9691      9690      9692      9694
      9692      9694      9697      9698      9692      9694      9697      9699
      9692      9694      9697      9700      9693      9692      9694      9695
      9693      9692      9694      9696      9693      9692      9694      9697
      9694      9697      9700      9701      9694      9697      9700      9702
      9694      9697      9700      9703      9695      9694      9697      9698
      9695      9694      9697      9699      9695      9694      9697      9700
      9696      9694      9697      9698      9696      9694      9697      9699
      9696      9694      9697      9700      9697      9700      9703      9704
      9697      9700      9703      9705      9697      9700      9703      9706
      9698      9697      9700      9701      9698      9697      9700      9702
      9698      9697      9700      9703      9699      9697      9700      9701
      9699      9697      9700      9702      9699      9697      9700      9703
      9700      9703      9706      9707      9700      9703      9706      9708
      9700      9703      9706      9709      9701      9700      9703      9704
      9701      9700      9703      9705      9701      9700      9703      9706
      9702      9700      9703      9704      9702      9700      9703      9705
      9702      9700      9703      9706      9704      9703      9706      9707
      9704      9703      9706      9708      9704      9703      9706      9709
      9705      9703      9706      9707      9705      9703      9706      9708
      9705      9703      9706      9709      9710      9713      9716      9717
      9710      9713      9716      9718      9710      9713      9716      9719
      9711      9710      9713      9714      9711      9710      9713      9715
      9711      9710      9713      9716      9712      9710      9713      9714
      9712      9710      9713      9715      9712      9710      9713      9716
      9713      9716      9719      9720      9713      9716      9719      9721
      9713      9716      9719      9722      9714      9713      9716      9717
      9714      9713      9716      9718      9714      9713      9716      9719
      9715      9713      9716      9717      9715      9713      9716      9718
      9715      9713      9716      9719      9716      9719      9722      9723
      9716      9719      9722      9724      9716      9719      9722      9725
      9717      9716      9719      9720      9717      9716      9719      9721
      9717      9716      9719      9722      9718      9716      9719      9720
      9718      9716      9719      9721      9718      9716      9719      9722
      9719      9722      9725      9726      9719      9722      9725      9727
      9719      9722      9725      9728      9720      9719      9722      9723
      9720      9719      9722      9724      9720      9719      9722      9725
      9721      9719      9722      9723      9721      9719      9722      9724
      9721      9719      9722      9725      9722      9725      9728      9729
      9722      9725      9728      9730      9722      9725      9728      9731
      9723      9722      9725      9726      9723      9722      9725      9727
      9723      9722      9725      9728      9724      9722      9725      9726
      9724      9722      9725      9727      9724      9722      9725      9728
      9725      9728      9731      9732      9725      9728      9731      9733
      9725      9728      9731      9734      9726      9725      9728      9729
      9726      9725      9728      9730      9726      9725      9728      9731
      9727      9725      9728      9729      9727      9725      9728      9730
      9727      9725      9728      9731      9728      9731      9734      9735
      9728      9731      9734      9736      9728      9731      9734      9737
      9729      9728      9731      9732      9729      9728      9731      9733
      9729      9728      9731      9734      9730      9728      9731      9732
      9730      9728      9731      9733      9730      9728      9731      9734
      9731      9734      9737      9738      9731      9734      9737      9739
      9731      9734      9737      9740      9732      9731      9734      9735
      9732      9731      9734      9736      9732      9731      9734      9737
      9733      9731      9734      9735      9733      9731      9734      9736
      9733      9731      9734      9737      9734      9737      9740      9741
      9734      9737      9740      9742      9734      9737      9740      9743
      9735      9734      9737      9738      9735      9734      9737      9739
      9735      9734      9737      9740      9736      9734      9737      9738
      9736      9734      9737      9739      9736      9734      9737      9740
      9737      9740      9743      9744      9737      9740      9743      9745
      9737      9740      9743      9746      9738      9737      9740      9741
      9738      9737      9740      9742      9738      9737      9740      9743
      9739      9737      9740      9741      9739      9737      9740      9742
      9739      9737      9740      9743      9740      9743      9746      9747
      9740      9743      9746      9748      9740      9743      9746      9749
      9741      9740      9743      9744      9741      9740      9743      9745
      9741      9740      9743      9746      9742      9740      9743      9744
      9742      9740      9743      9745      9742      9740      9743      9746
      9743      9746      9749      9750      9743      9746      9749      9751
      9743      9746      9749      9752      9744      9743      9746      9747
      9744      9743      9746      9748      9744      9743      9746      9749
      9745      9743      9746      9747      9745      9743      9746      9748
      9745      9743      9746      9749      9746      9749      9752      9753
      9746      9749      9752      9754      9746      9749      9752      9755
      9747      9746      9749      9750      9747      9746      9749      9751
      9747      9746      9749      9752      9748      9746      9749      9750
      9748      9746      9749      9751      9748      9746      9749      9752
      9749      9752      9755      9756      9749      9752      9755      9757
      9749      9752      9755      9758      9750      9749      9752      9753
      9750      9749      9752      9754      9750      9749      9752      9755
      9751      9749      9752      9753      9751      9749      9752      9754
      9751      9749      9752      9755      9753      9752      9755      9756
      9753      9752      9755      9757      9753      9752      9755      9758
      9754      9752      9755      9756      9754      9752      9755      9757
      9754      9752      9755      9758      9759      9772      9775      9776
      9759      9772      9775      9777      9759      9772      9775      9782
      9760      9759      9764      9765      9760      9759      9764      9766
      9760      9759      9764      9767      9760      9759      9768      9769
      9760      9759      9768      9770      9760      9759      9768      9771
      9760      9759      9772      9773      9760      9759      9772      9774
      9760      9759      9772      9775      9761      9760      9759      9764
      9761      9760      9759      9768      9761      9760      9759      9772
      9762      9760      9759      9764      9762      9760      9759      9768
      9762      9760      9759      9772      9763      9760      9759      9764
      9763      9760      9759      9768      9763      9760      9759      9772
      9764      9759      9768      9769      9764      9759      9768      9770
      9764      9759      9768      9771      9764      9759      9772      9773
      9764      9759      9772      9774      9764      9759      9772      9775
      9765      9764      9759      9768      9765      9764      9759      9772
      9766      9764      9759      9768      9766      9764      9759      9772
      9767      9764      9759      9768      9767      9764      9759      9772
      9768      9759      9772      9773      9768      9759      9772      9774
      9768      9759      9772      9775      9769      9768      9759      9772
      9770      9768      9759      9772      9771      9768      9759      9772
      9772      9775      9782      9778      9773      9772      9775      9776
      9773      9772      9775      9777      9773      9772      9775      9782
      9774      9772      9775      9776      9774      9772      9775      9777
      9774      9772      9775      9782      9775      9782      9778      9779
      9775      9782      9778      9780      9775      9782      9778      9781
      9776      9775      9782      9778      9777      9775      9782      9778
      9778      9781      9783      9784      9778      9781      9783      9785
      9778      9781      9783      9788      9779      9778      9781      9783
      9780      9778      9781      9783      9781      9783      9788      9786
      9781      9783      9788      9789      9781      9783      9788      9790
      9782      9778      9781      9783      9783      9788      9786      9787
      9783      9788      9786      9838      9783      9788      9790      9791
      9783      9788      9790      9792      9783      9788      9790      9794
      9784      9783      9788      9786      9784      9783      9788      9789
      9784      9783      9788      9790      9785      9783      9788      9786
      9785      9783      9788      9789      9785      9783      9788      9790
      9786      9788      9790      9791      9786      9788      9790      9792
      9786      9788      9790      9794      9786      9838      9840      9841
      9786      9838      9840      9842      9786      9838      9840      9843
      9787      9786      9788      9789      9787      9786      9788      9790
      9787      9786      9838      9839      9787      9786      9838      9840
      9788      9786      9838      9839      9788      9786      9838      9840
      9788      9790      9792      9793      9788      9790      9794      9795
      9788      9790      9794      9796      9789      9788      9786      9838
      9789      9788      9790      9791      9789      9788      9790      9792
      9789      9788      9790      9794      9790      9788      9786      9838
      9790      9794      9796      9797      9790      9794      9796      9798
      9791      9790      9792      9793      9791      9790      9794      9795
      9791      9790      9794      9796      9792      9790      9794      9795
      9792      9790      9794      9796      9793      9792      9790      9794
      9794      9796      9798      9799      9794      9796      9798      9800
      9794      9796      9798      9801      9795      9794      9796      9797
      9795      9794      9796      9798      9796      9798      9801      9802
      9796      9798      9801      9803      9796      9798      9801      9804
      9797      9796      9798      9799      9797      9796      9798      9800
      9797      9796      9798      9801      9798      9801      9804      9805
      9798      9801      9804      9806      9798      9801      9804      9807
      9799      9798      9801      9802      9799      9798      9801      9803
      9799      9798      9801      9804      9800      9798      9801      9802
      9800      9798      9801      9803      9800      9798      9801      9804
      9801      9804      9807      9808      9801      9804      9807      9809
      9801      9804      9807      9810      9802      9801      9804      9805
      9802      9801      9804      9806      9802      9801      9804      9807
      9803      9801      9804      9805      9803      9801      9804      9806
      9803      9801      9804      9807      9804      9807      9810      9811
      9804      9807      9810      9812      9804      9807      9810      9813
      9805      9804      9807      9808      9805      9804      9807      9809
      9805      9804      9807      9810      9806      9804      9807      9808
      9806      9804      9807      9809      9806      9804      9807      9810
      9807      9810      9813      9814      9807      9810      9813      9815
      9807      9810      9813      9816      9808      9807      9810      9811
      9808      9807      9810      9812      9808      9807      9810      9813
      9809      9807      9810      9811      9809      9807      9810      9812
      9809      9807      9810      9813      9810      9813      9816      9817
      9810      9813      9816      9818      9810      9813      9816      9819
      9811      9810      9813      9814      9811      9810      9813      9815
      9811      9810      9813      9816      9812      9810      9813      9814
      9812      9810      9813      9815      9812      9810      9813      9816
      9813      9816      9819      9820      9813      9816      9819      9821
      9813      9816      9819      9822      9814      9813      9816      9817
      9814      9813      9816      9818      9814      9813      9816      9819
      9815      9813      9816      9817      9815      9813      9816      9818
      9815      9813      9816      9819      9816      9819      9822      9823
      9816      9819      9822      9824      9816      9819      9822      9825
      9817      9816      9819      9820      9817      9816      9819      9821
      9817      9816      9819      9822      9818      9816      9819      9820
      9818      9816      9819      9821      9818      9816      9819      9822
      9819      9822      9825      9826      9819      9822      9825      9827
      9819      9822      9825      9828      9820      9819      9822      9823
      9820      9819      9822      9824      9820      9819      9822      9825
      9821      9819      9822      9823      9821      9819      9822      9824
      9821      9819      9822      9825      9822      9825      9828      9829
      9822      9825      9828      9830      9822      9825      9828      9831
      9823      9822      9825      9826      9823      9822      9825      9827
      9823      9822      9825      9828      9824      9822      9825      9826
      9824      9822      9825      9827      9824      9822      9825      9828
      9825      9828      9831      9832      9825      9828      9831      9833
      9825      9828      9831      9834      9826      9825      9828      9829
      9826      9825      9828      9830      9826      9825      9828      9831
      9827      9825      9828      9829      9827      9825      9828      9830
      9827      9825      9828      9831      9828      9831      9834      9835
      9828      9831      9834      9836      9828      9831      9834      9837
      9829      9828      9831      9832      9829      9828      9831      9833
      9829      9828      9831      9834      9830      9828      9831      9832
      9830      9828      9831      9833      9830      9828      9831      9834
      9832      9831      9834      9835      9832      9831      9834      9836
      9832      9831      9834      9837      9833      9831      9834      9835
      9833      9831      9834      9836      9833      9831      9834      9837
      9838      9840      9843      9844      9838      9840      9843      9845
      9838      9840      9843      9846      9839      9838      9840      9841
      9839      9838      9840      9842      9839      9838      9840      9843
      9840      9843      9846      9847      9840      9843      9846      9848
      9840      9843      9846      9849      9841      9840      9843      9844
      9841      9840      9843      9845      9841      9840      9843      9846
      9842      9840      9843      9844      9842      9840      9843      9845
      9842      9840      9843      9846      9843      9846      9849      9850
      9843      9846      9849      9851      9843      9846      9849      9852
      9844      9843      9846      9847      9844      9843      9846      9848
      9844      9843      9846      9849      9845      9843      9846      9847
      9845      9843      9846      9848      9845      9843      9846      9849
      9846      9849      9852      9853      9846      9849      9852      9854
      9846      9849      9852      9855      9847      9846      9849      9850
      9847      9846      9849      9851      9847      9846      9849      9852
      9848      9846      9849      9850      9848      9846      9849      9851
      9848      9846      9849      9852      9849      9852      9855      9856
      9849      9852      9855      9857      9849      9852      9855      9858
      9850      9849      9852      9853      9850      9849      9852      9854
      9850      9849      9852      9855      9851      9849      9852      9853
      9851      9849      9852      9854      9851      9849      9852      9855
      9852      9855      9858      9859      9852      9855      9858      9860
      9852      9855      9858      9861      9853      9852      9855      9856
      9853      9852      9855      9857      9853      9852      9855      9858
      9854      9852      9855      9856      9854      9852      9855      9857
      9854      9852      9855      9858      9855      9858      9861      9862
      9855      9858      9861      9863      9856      9855      9858      9859
      9856      9855      9858      9860      9856      9855      9858      9861
      9857      9855      9858      9859      9857      9855      9858      9860
      9857      9855      9858      9861      9858      9861      9863      9864
      9858      9861      9863      9865      9859      9858      9861      9862
      9859      9858      9861      9863      9860      9858      9861      9862
      9860      9858      9861      9863      9861      9863      9865      9866
      9861      9863      9865      9867      9861      9863      9865      9868
      9862      9861      9863      9864      9862      9861      9863      9865
      9863      9865      9868      9869      9863      9865      9868      9870
      9863      9865      9868      9871      9864      9863      9865      9866
      9864      9863      9865      9867      9864      9863      9865      9868
      9865      9868      9871      9872      9865      9868      9871      9873
      9865      9868      9871      9874      9866      9865      9868      9869
      9866      9865      9868      9870      9866      9865      9868      9871
      9867      9865      9868      9869      9867      9865      9868      9870
      9867      9865      9868      9871      9868      9871      9874      9875
      9868      9871      9874      9876      9868      9871      9874      9877
      9869      9868      9871      9872      9869      9868      9871      9873
      9869      9868      9871      9874      9870      9868      9871      9872
      9870      9868      9871      9873      9870      9868      9871      9874
      9871      9874      9877      9878      9871      9874      9877      9879
      9871      9874      9877      9880      9872      9871      9874      9875
      9872      9871      9874      9876      9872      9871      9874      9877
      9873      9871      9874      9875      9873      9871      9874      9876
      9873      9871      9874      9877      9874      9877      9880      9881
      9874      9877      9880      9882      9874      9877      9880      9883
      9875      9874      9877      9878      9875      9874      9877      9879
      9875      9874      9877      9880      9876      9874      9877      9878
      9876      9874      9877      9879      9876      9874      9877      9880
      9877      9880      9883      9884      9877      9880      9883      9885
      9877      9880      9883      9886      9878      9877      9880      9881
      9878      9877      9880      9882      9878      9877      9880      9883
      9879      9877      9880      9881      9879      9877      9880      9882
      9879      9877      9880      9883      9880      9883      9886      9887
      9880      9883      9886      9888      9880      9883      9886      9889
      9881      9880      9883      9884      9881      9880      9883      9885
      9881      9880      9883      9886      9882      9880      9883      9884
      9882      9880      9883      9885      9882      9880      9883      9886
      9884      9883      9886      9887      9884      9883      9886      9888
      9884      9883      9886      9889      9885      9883      9886      9887
      9885      9883      9886      9888      9885      9883      9886      9889
      9890      9903      9906      9907      9890      9903      9906      9908
      9890      9903      9906      9912      9891      9890      9895      9896
      9891      9890      9895      9897      9891      9890      9895      9898
      9891      9890      9899      9900      9891      9890      9899      9901
      9891      9890      9899      9902      9891      9890      9903      9904
      9891      9890      9903      9905      9891      9890      9903      9906
      9892      9891      9890      9895      9892      9891      9890      9899
      9892      9891      9890      9903      9893      9891      9890      9895
      9893      9891      9890      9899      9893      9891      9890      9903
      9894      9891      9890      9895      9894      9891      9890      9899
      9894      9891      9890      9903      9895      9890      9899      9900
      9895      9890      9899      9901      9895      9890      9899      9902
      9895      9890      9903      9904      9895      9890      9903      9905
      9895      9890      9903      9906      9896      9895      9890      9899
      9896      9895      9890      9903      9897      9895      9890      9899
      9897      9895      9890      9903      9898      9895      9890      9899
      9898      9895      9890      9903      9899      9890      9903      9904
      9899      9890      9903      9905      9899      9890      9903      9906
      9900      9899      9890      9903      9901      9899      9890      9903
      9902      9899      9890      9903      9903      9906      9912      9909
      9904      9903      9906      9907      9904      9903      9906      9908
      9904      9903      9906      9912      9905      9903      9906      9907
      9905      9903      9906      9908      9905      9903      9906      9912
      9906      9912      9909      9910      9906      9912      9909      9911
      9906      9912      9909      9913      9907      9906      9912      9909
      9908      9906      9912      9909      9909      9913      9914      9915
      9909      9913      9914      9916      9909      9913      9914      9917
      9910      9909      9913      9914      9911      9909      9913      9914
      9912      9909      9913      9914      9913      9914      9917      9918
      9913      9914      9917      9919      9913      9914      9917      9925
      9914      9917      9919      9920      9914      9917      9925      9926
      9914      9917      9925      9927      9914      9917      9925      9928
      9915      9914      9917      9918      9915      9914      9917      9919
      9915      9914      9917      9925      9916      9914      9917      9918
      9916      9914      9917      9919      9916      9914      9917      9925
      9917      9919      9920      9921      9917      9919      9920      9922
      9917      9925      9928      9929      9918      9917      9919      9920
      9918      9917      9925      9926      9918      9917      9925      9927
      9918      9917      9925      9928      9919      9917      9925      9926
      9919      9917      9925      9927      9919      9917      9925      9928
      9919      9920      9922      9923      9919      9920      9922      9924
      9919      9920      9922      9934      9920      9919      9917      9925
      9920      9922      9934      9935      9920      9922      9934      9936
      9920      9922      9934      9937      9921      9920      9922      9923
      9921      9920      9922      9924      9921      9920      9922      9934
      9922      9934      9937      9938      9922      9934      9937      9939
      9922      9934      9937      9940      9923      9922      9934      9935
      9923      9922      9934      9936      9923      9922      9934      9937
      9924      9922      9934      9935      9924      9922      9934      9936
      9924      9922      9934      9937      9925      9928      9929      9930
      9925      9928      9929      9931      9926      9925      9928      9929
      9927      9925      9928      9929      9928      9929      9931      9932
      9928      9929      9931      9933      9928      9929      9931      9979
      9929      9931      9979      9980      9929      9931      9979      9981
      9929      9931      9979      9982      9930      9929      9931      9932
      9930      9929      9931      9933      9930      9929      9931      9979
      9931      9979      9982      9983      9931      9979      9982      9984
      9931      9979      9982      9985      9932      9931      9979      9980
      9932      9931      9979      9981      9932      9931      9979      9982
      9933      9931      9979      9980      9933      9931      9979      9981
      9933      9931      9979      9982      9934      9937      9940      9941
      9934      9937      9940      9942      9934      9937      9940      9943
      9935      9934      9937      9938      9935      9934      9937      9939
      9935      9934      9937      9940      9936      9934      9937      9938
      9936      9934      9937      9939      9936      9934      9937      9940
      9937      9940      9943      9944      9937      9940      9943      9945
      9937      9940      9943      9946      9938      9937      9940      9941
      9938      9937      9940      9942      9938      9937      9940      9943
      9939      9937      9940      9941      9939      9937      9940      9942
      9939      9937      9940      9943      9940      9943      9946      9947
      9940      9943      9946      9948      9940      9943      9946      9949
      9941      9940      9943      9944      9941      9940      9943      9945
      9941      9940      9943      9946      9942      9940      9943      9944
      9942      9940      9943      9945      9942      9940      9943      9946
      9943      9946      9949      9950      9943      9946      9949      9951
      9943      9946      9949      9952      9944      9943      9946      9947
      9944      9943      9946      9948      9944      9943      9946      9949
      9945      9943      9946      9947      9945      9943      9946      9948
      9945      9943      9946      9949      9946      9949      9952      9953
      9946      9949      9952      9954      9947      9946      9949      9950
      9947      9946      9949      9951      9947      9946      9949      9952
      9948      9946      9949      9950      9948      9946      9949      9951
      9948      9946      9949      9952      9949      9952      9954      9955
      9949      9952      9954      9956      9950      9949      9952      9953
      9950      9949      9952      9954      9951      9949      9952      9953
      9951      9949      9952      9954      9952      9954      9956      9957
      9952      9954      9956      9958      9952      9954      9956      9959
      9953      9952      9954      9955      9953      9952      9954      9956
      9954      9956      9959      9960      9954      9956      9959      9961
      9955      9954      9956      9957      9955      9954      9956      9958
      9955      9954      9956      9959      9956      9959      9961      9962
      9956      9959      9961      9963      9957      9956      9959      9960
      9957      9956      9959      9961      9958      9956      9959      9960
      9958      9956      9959      9961      9959      9961      9963      9964
      9959      9961      9963      9965      9959      9961      9963      9966
      9960      9959      9961      9962      9960      9959      9961      9963
      9961      9963      9966      9967      9961      9963      9966      9968
      9961      9963      9966      9969      9962      9961      9963      9964
      9962      9961      9963      9965      9962      9961      9963      9966
      9963      9966      9969      9970      9963      9966      9969      9971
      9963      9966      9969      9972      9964      9963      9966      9967
      9964      9963      9966      9968      9964      9963      9966      9969
      9965      9963      9966      9967      9965      9963      9966      9968
      9965      9963      9966      9969      9966      9969      9972      9973
      9966      9969      9972      9974      9966      9969      9972      9975
      9967      9966      9969      9970      9967      9966      9969      9971
      9967      9966      9969      9972      9968      9966      9969      9970
      9968      9966      9969      9971      9968      9966      9969      9972
      9969      9972      9975      9976      9969      9972      9975      9977
      9969      9972      9975      9978      9970      9969      9972      9973
      9970      9969      9972      9974      9970      9969      9972      9975
      9971      9969      9972      9973      9971      9969      9972      9974
      9971      9969      9972      9975      9973      9972      9975      9976
      9973      9972      9975      9977      9973      9972      9975      9978
      9974      9972      9975      9976      9974      9972      9975      9977
      9974      9972      9975      9978      9979      9982      9985      9986
      9979      9982      9985      9987      9979      9982      9985      9988
      9980      9979      9982      9983      9980      9979      9982      9984
      9980      9979      9982      9985      9981      9979      9982      9983
      9981      9979      9982      9984      9981      9979      9982      9985
      9982      9985      9988      9989      9982      9985      9988      9990
      9982      9985      9988      9991      9983      9982      9985      9986
      9983      9982      9985      9987      9983      9982      9985      9988
      9984      9982      9985      9986      9984      9982      9985      9987
      9984      9982      9985      9988      9985      9988      9991      9992
      9985      9988      9991      9993      9985      9988      9991      9994
      9986      9985      9988      9989      9986      9985      9988      9990
      9986      9985      9988      9991      9987      9985      9988      9989
      9987      9985      9988      9990      9987      9985      9988      9991
      9988      9991      9994      9995      9988      9991      9994      9996
      9988      9991      9994      9997      9989      9988      9991      9992
      9989      9988      9991      9993      9989      9988      9991      9994
      9990      9988      9991      9992      9990      9988      9991      9993
      9990      9988      9991      9994      9991      9994      9997      9998
      9991      9994      9997      9999      9991      9994      9997     10000
      9992      9991      9994      9995      9992      9991      9994      9996
      9992      9991      9994      9997      9993      9991      9994      9995
      9993      9991      9994      9996      9993      9991      9994      9997
      9994      9997     10000     10001      9994      9997     10000     10002
      9994      9997     10000     10003      9995      9994      9997      9998
      9995      9994      9997      9999      9995      9994      9997     10000
      9996      9994      9997      9998      9996      9994      9997      9999
      9996      9994      9997     10000      9997     10000     10003     10004
      9997     10000     10003     10005      9997     10000     10003     10006
      9998      9997     10000     10001      9998      9997     10000     10002
      9998      9997     10000     10003      9999      9997     10000     10001
      9999      9997     10000     10002      9999      9997     10000     10003
     10000     10003     10006     10007     10000     10003     10006     10008
     10000     10003     10006     10009     10001     10000     10003     10004
     10001     10000     10003     10005     10001     10000     10003     10006
     10002     10000     10003     10004     10002     10000     10003     10005
     10002     10000     10003     10006     10003     10006     10009     10010
     10003     10006     10009     10011     10003     10006     10009     10012
     10004     10003     10006     10007     10004     10003     10006     10008
     10004     10003     10006     10009     10005     10003     10006     10007
     10005     10003     10006     10008     10005     10003     10006     10009
     10006     10009     10012     10013     10006     10009     10012     10014
     10006     10009     10012     10015     10007     10006     10009     10010
     10007     10006     10009     10011     10007     10006     10009     10012
     10008     10006     10009     10010     10008     10006     10009     10011
     10008     10006     10009     10012     10009     10012     10015     10016
     10009     10012     10015     10017     10009     10012     10015     10018
     10010     10009     10012     10013     10010     10009     10012     10014
     10010     10009     10012     10015     10011     10009     10012     10013
     10011     10009     10012     10014     10011     10009     10012     10015
     10012     10015     10018     10019     10012     10015     10018     10020
     10012     10015     10018     10021     10013     10012     10015     10016
     10013     10012     10015     10017     10013     10012     10015     10018
     10014     10012     10015     10016     10014     10012     10015     10017
     10014     10012     10015     10018     10015     10018     10021     10022
     10015     10018     10021     10023     10015     10018     10021     10024
     10016     10015     10018     10019     10016     10015     10018     10020
     10016     10015     10018     10021     10017     10015     10018     10019
     10017     10015     10018     10020     10017     10015     10018     10021
     10018     10021     10024     10025     10018     10021     10024     10026
     10018     10021     10024     10027     10019     10018     10021     10022
     10019     10018     10021     10023     10019     10018     10021     10024
     10020     10018     10021     10022     10020     10018     10021     10023
     10020     10018     10021     10024     10022     10021     10024     10025
     10022     10021     10024     10026     10022     10021     10024     10027
     10023     10021     10024     10025     10023     10021     10024     10026
     10023     10021     10024     10027     10028     10041     10044     10045
     10028     10041     10044     10046     10028     10041     10044     10051
     10029     10028     10033     10034     10029     10028     10033     10035
     10029     10028     10033     10036     10029     10028     10037     10038
     10029     10028     10037     10039     10029     10028     10037     10040
     10029     10028     10041     10042     10029     10028     10041     10043
     10029     10028     10041     10044     10030     10029     10028     10033
     10030     10029     10028     10037     10030     10029     10028     10041
     10031     10029     10028     10033     10031     10029     10028     10037
     10031     10029     10028     10041     10032     10029     10028     10033
     10032     10029     10028     10037     10032     10029     10028     10041
     10033     10028     10037     10038     10033     10028     10037     10039
     10033     10028     10037     10040     10033     10028     10041     10042
     10033     10028     10041     10043     10033     10028     10041     10044
     10034     10033     10028     10037     10034     10033     10028     10041
     10035     10033     10028     10037     10035     10033     10028     10041
     10036     10033     10028     10037     10036     10033     10028     10041
     10037     10028     10041     10042     10037     10028     10041     10043
     10037     10028     10041     10044     10038     10037     10028     10041
     10039     10037     10028     10041     10040     10037     10028     10041
     10041     10044     10051     10047     10042     10041     10044     10045
     10042     10041     10044     10046     10042     10041     10044     10051
     10043     10041     10044     10045     10043     10041     10044     10046
     10043     10041     10044     10051     10044     10051     10047     10048
     10044     10051     10047     10049     10044     10051     10047     10050
     10045     10044     10051     10047     10046     10044     10051     10047
     10047     10050     10052     10053     10047     10050     10052     10054
     10047     10050     10052     10057     10048     10047     10050     10052
     10049     10047     10050     10052     10050     10052     10057     10055
     10050     10052     10057     10058     10050     10052     10057     10059
     10051     10047     10050     10052     10052     10057     10055     10056
     10052     10057     10055     10107     10052     10057     10059     10060
     10052     10057     10059     10061     10052     10057     10059     10063
     10053     10052     10057     10055     10053     10052     10057     10058
     10053     10052     10057     10059     10054     10052     10057     10055
     10054     10052     10057     10058     10054     10052     10057     10059
     10055     10057     10059     10060     10055     10057     10059     10061
     10055     10057     10059     10063     10055     10107     10109     10110
     10055     10107     10109     10111     10055     10107     10109     10112
     10056     10055     10057     10058     10056     10055     10057     10059
     10056     10055     10107     10108     10056     10055     10107     10109
     10057     10055     10107     10108     10057     10055     10107     10109
     10057     10059     10061     10062     10057     10059     10063     10064
     10057     10059     10063     10065     10058     10057     10055     10107
     10058     10057     10059     10060     10058     10057     10059     10061
     10058     10057     10059     10063     10059     10057     10055     10107
     10059     10063     10065     10066     10059     10063     10065     10067
     10060     10059     10061     10062     10060     10059     10063     10064
     10060     10059     10063     10065     10061     10059     10063     10064
     10061     10059     10063     10065     10062     10061     10059     10063
     10063     10065     10067     10068     10063     10065     10067     10069
     10063     10065     10067     10070     10064     10063     10065     10066
     10064     10063     10065     10067     10065     10067     10070     10071
     10065     10067     10070     10072     10065     10067     10070     10073
     10066     10065     10067     10068     10066     10065     10067     10069
     10066     10065     10067     10070     10067     10070     10073     10074
     10067     10070     10073     10075     10067     10070     10073     10076
     10068     10067     10070     10071     10068     10067     10070     10072
     10068     10067     10070     10073     10069     10067     10070     10071
     10069     10067     10070     10072     10069     10067     10070     10073
     10070     10073     10076     10077     10070     10073     10076     10078
     10070     10073     10076     10079     10071     10070     10073     10074
     10071     10070     10073     10075     10071     10070     10073     10076
     10072     10070     10073     10074     10072     10070     10073     10075
     10072     10070     10073     10076     10073     10076     10079     10080
     10073     10076     10079     10081     10073     10076     10079     10082
     10074     10073     10076     10077     10074     10073     10076     10078
     10074     10073     10076     10079     10075     10073     10076     10077
     10075     10073     10076     10078     10075     10073     10076     10079
     10076     10079     10082     10083     10076     10079     10082     10084
     10076     10079     10082     10085     10077     10076     10079     10080
     10077     10076     10079     10081     10077     10076     10079     10082
     10078     10076     10079     10080     10078     10076     10079     10081
     10078     10076     10079     10082     10079     10082     10085     10086
     10079     10082     10085     10087     10079     10082     10085     10088
     10080     10079     10082     10083     10080     10079     10082     10084
     10080     10079     10082     10085     10081     10079     10082     10083
     10081     10079     10082     10084     10081     10079     10082     10085
     10082     10085     10088     10089     10082     10085     10088     10090
     10082     10085     10088     10091     10083     10082     10085     10086
     10083     10082     10085     10087     10083     10082     10085     10088
     10084     10082     10085     10086     10084     10082     10085     10087
     10084     10082     10085     10088     10085     10088     10091     10092
     10085     10088     10091     10093     10085     10088     10091     10094
     10086     10085     10088     10089     10086     10085     10088     10090
     10086     10085     10088     10091     10087     10085     10088     10089
     10087     10085     10088     10090     10087     10085     10088     10091
     10088     10091     10094     10095     10088     10091     10094     10096
     10088     10091     10094     10097     10089     10088     10091     10092
     10089     10088     10091     10093     10089     10088     10091     10094
     10090     10088     10091     10092     10090     10088     10091     10093
     10090     10088     10091     10094     10091     10094     10097     10098
     10091     10094     10097     10099     10091     10094     10097     10100
     10092     10091     10094     10095     10092     10091     10094     10096
     10092     10091     10094     10097     10093     10091     10094     10095
     10093     10091     10094     10096     10093     10091     10094     10097
     10094     10097     10100     10101     10094     10097     10100     10102
     10094     10097     10100     10103     10095     10094     10097     10098
     10095     10094     10097     10099     10095     10094     10097     10100
     10096     10094     10097     10098     10096     10094     10097     10099
     10096     10094     10097     10100     10097     10100     10103     10104
     10097     10100     10103     10105     10097     10100     10103     10106
     10098     10097     10100     10101     10098     10097     10100     10102
     10098     10097     10100     10103     10099     10097     10100     10101
     10099     10097     10100     10102     10099     10097     10100     10103
     10101     10100     10103     10104     10101     10100     10103     10105
     10101     10100     10103     10106     10102     10100     10103     10104
     10102     10100     10103     10105     10102     10100     10103     10106
     10107     10109     10112     10113     10107     10109     10112     10114
     10107     10109     10112     10115     10108     10107     10109     10110
     10108     10107     10109     10111     10108     10107     10109     10112
     10109     10112     10115     10116     10109     10112     10115     10117
     10109     10112     10115     10118     10110     10109     10112     10113
     10110     10109     10112     10114     10110     10109     10112     10115
     10111     10109     10112     10113     10111     10109     10112     10114
     10111     10109     10112     10115     10112     10115     10118     10119
     10112     10115     10118     10120     10112     10115     10118     10121
     10113     10112     10115     10116     10113     10112     10115     10117
     10113     10112     10115     10118     10114     10112     10115     10116
     10114     10112     10115     10117     10114     10112     10115     10118
     10115     10118     10121     10122     10115     10118     10121     10123
     10115     10118     10121     10124     10116     10115     10118     10119
     10116     10115     10118     10120     10116     10115     10118     10121
     10117     10115     10118     10119     10117     10115     10118     10120
     10117     10115     10118     10121     10118     10121     10124     10125
     10118     10121     10124     10126     10118     10121     10124     10127
     10119     10118     10121     10122     10119     10118     10121     10123
     10119     10118     10121     10124     10120     10118     10121     10122
     10120     10118     10121     10123     10120     10118     10121     10124
     10121     10124     10127     10128     10121     10124     10127     10129
     10121     10124     10127     10130     10122     10121     10124     10125
     10122     10121     10124     10126     10122     10121     10124     10127
     10123     10121     10124     10125     10123     10121     10124     10126
     10123     10121     10124     10127     10124     10127     10130     10131
     10124     10127     10130     10132     10125     10124     10127     10128
     10125     10124     10127     10129     10125     10124     10127     10130
     10126     10124     10127     10128     10126     10124     10127     10129
     10126     10124     10127     10130     10127     10130     10132     10133
     10127     10130     10132     10134     10128     10127     10130     10131
     10128     10127     10130     10132     10129     10127     10130     10131
     10129     10127     10130     10132     10130     10132     10134     10135
     10130     10132     10134     10136     10130     10132     10134     10137
     10131     10130     10132     10133     10131     10130     10132     10134
     10132     10134     10137     10138     10132     10134     10137     10139
     10132     10134     10137     10140     10133     10132     10134     10135
     10133     10132     10134     10136     10133     10132     10134     10137
     10134     10137     10140     10141     10134     10137     10140     10142
     10134     10137     10140     10143     10135     10134     10137     10138
     10135     10134     10137     10139     10135     10134     10137     10140
     10136     10134     10137     10138     10136     10134     10137     10139
     10136     10134     10137     10140     10137     10140     10143     10144
     10137     10140     10143     10145     10137     10140     10143     10146
     10138     10137     10140     10141     10138     10137     10140     10142
     10138     10137     10140     10143     10139     10137     10140     10141
     10139     10137     10140     10142     10139     10137     10140     10143
     10140     10143     10146     10147     10140     10143     10146     10148
     10140     10143     10146     10149     10141     10140     10143     10144
     10141     10140     10143     10145     10141     10140     10143     10146
     10142     10140     10143     10144     10142     10140     10143     10145
     10142     10140     10143     10146     10143     10146     10149     10150
     10143     10146     10149     10151     10143     10146     10149     10152
     10144     10143     10146     10147     10144     10143     10146     10148
     10144     10143     10146     10149     10145     10143     10146     10147
     10145     10143     10146     10148     10145     10143     10146     10149
     10146     10149     10152     10153     10146     10149     10152     10154
     10146     10149     10152     10155     10147     10146     10149     10150
     10147     10146     10149     10151     10147     10146     10149     10152
     10148     10146     10149     10150     10148     10146     10149     10151
     10148     10146     10149     10152     10149     10152     10155     10156
     10149     10152     10155     10157     10149     10152     10155     10158
     10150     10149     10152     10153     10150     10149     10152     10154
     10150     10149     10152     10155     10151     10149     10152     10153
     10151     10149     10152     10154     10151     10149     10152     10155
     10153     10152     10155     10156     10153     10152     10155     10157
     10153     10152     10155     10158     10154     10152     10155     10156
     10154     10152     10155     10157     10154     10152     10155     10158
     10159     10163     10166     10167     10159     10163     10166     10197
     10159     10205     10202     10197     10159     10205     10202     10203
     10159     10205     10202     10204     10160     10159     10161     10162
     10160     10159     10163     10164     10160     10159     10163     10165
     10160     10159     10163     10166     10160     10159     10205     10202
     10160     10159     10205     10206     10160     10159     10205     10207
     10161     10159     10163     10164     10161     10159     10163     10165
     10161     10159     10163     10166     10161     10159     10205     10202
     10161     10159     10205     10206     10161     10159     10205     10207
     10162     10161     10159     10163     10162     10161     10159     10205
     10163     10159     10205     10202     10163     10159     10205     10206
     10163     10159     10205     10207     10163     10166     10167     10168
     10163     10166     10167     10169     10163     10166     10197     10195
     10163     10166     10197     10198     10163     10166     10197     10202
     10164     10163     10159     10205     10164     10163     10166     10167
     10164     10163     10166     10197     10165     10163     10159     10205
     10165     10163     10166     10167     10165     10163     10166     10197
     10166     10163     10159     10205     10166     10167     10169     10170
     10166     10167     10169     10171     10166     10167     10169     10172
     10166     10197     10195     10172     10166     10197     10195     10192
     10166     10197     10195     10196     10166     10197     10198     10199
     10166     10197     10198     10200     10166     10197     10198     10201
     10166     10197     10202     10203     10166     10197     10202     10204
     10166     10197     10202     10205     10167     10166     10197     10195
     10167     10166     10197     10198     10167     10166     10197     10202
     10167     10169     10172     10173     10167     10169     10172     10174
     10167     10169     10172     10195     10168     10167     10166     10197
     10168     10167     10169     10170     10168     10167     10169     10171
     10168     10167     10169     10172     10169     10167     10166     10197
     10169     10172     10174     10175     10169     10172     10174     10176
     10169     10172     10174     10184     10169     10172     10195     10192
     10169     10172     10195     10196     10169     10172     10195     10197
     10170     10169     10172     10173     10170     10169     10172     10174
     10170     10169     10172     10195     10171     10169     10172     10173
     10171     10169     10172     10174     10171     10169     10172     10195
     10172     10174     10176     10177     10172     10174     10176     10178
     10172     10174     10176     10179     10172     10174     10184     10182
     10172     10174     10184     10185     10172     10174     10184     10189
     10172     10195     10192     10189     10172     10195     10192     10193
     10172     10195     10192     10194     10172     10195     10197     10198
     10172     10195     10197     10202     10173     10172     10174     10175
     10173     10172     10174     10176     10173     10172     10174     10184
     10173     10172     10195     10192     10173     10172     10195     10196
     10173     10172     10195     10197     10174     10172     10195     10192
     10174     10172     10195     10196     10174     10172     10195     10197
     10174     10176     10179     10180     10174     10176     10179     10181
     10174     10176     10179     10182     10174     10184     10182     10179
     10174     10184     10182     10183     10174     10184     10182     10208
     10174     10184     10185     10186     10174     10184     10185     10187
     10174     10184     10185     10188     10174     10184     10189     10190
     10174     10184     10189     10191     10174     10184     10189     10192
     10175     10174     10172     10195     10175     10174     10176     10177
     10175     10174     10176     10178     10175     10174     10176     10179
     10175     10174     10184     10182     10175     10174     10184     10185
     10175     10174     10184     10189     10176     10174     10172     10195
     10176     10174     10184     10182     10176     10174     10184     10185
     10176     10174     10184     10189     10176     10179     10182     10183
     10176     10179     10182     10184     10176     10179     10182     10208
     10177     10176     10174     10184     10177     10176     10179     10180
     10177     10176     10179     10181     10177     10176     10179     10182
     10178     10176     10174     10184     10178     10176     10179     10180
     10178     10176     10179     10181     10178     10176     10179     10182
     10179     10176     10174     10184     10179     10182     10184     10185
     10179     10182     10184     10189     10179     10182     10208     10209
     10179     10182     10208     10210     10179     10182     10208     10214
     10180     10179     10182     10183     10180     10179     10182     10184
     10180     10179     10182     10208     10181     10179     10182     10183
     10181     10179     10182     10184     10181     10179     10182     10208
     10182     10184     10185     10186     10182     10184     10185     10187
     10182     10184     10185     10188     10182     10184     10189     10190
     10182     10184     10189     10191     10182     10184     10189     10192
     10182     10208     10210     10211     10182     10208     10210     10212
     10182     10208     10210     10213     10182     10208     10214     10215
     10182     10208     10214     10216     10182     10208     10214     10217
     10183     10182     10184     10185     10183     10182     10184     10189
     10183     10182     10208     10209     10183     10182     10208     10210
     10183     10182     10208     10214     10184     10174     10172     10195
     10184     10182     10208     10209     10184     10182     10208     10210
     10184     10182     10208     10214     10184     10189     10192     10193
     10184     10189     10192     10194     10184     10189     10192     10195
     10185     10184     10182     10208     10185     10184     10189     10190
     10185     10184     10189     10191     10185     10184     10189     10192
     10186     10185     10184     10189     10187     10185     10184     10189
     10188     10185     10184     10189     10189     10184     10182     10208
     10189     10192     10195     10196     10189     10192     10195     10197
     10190     10189     10192     10193     10190     10189     10192     10194
     10190     10189     10192     10195     10191     10189     10192     10193
     10191     10189     10192     10194     10191     10189     10192     10195
     10192     10195     10197     10198     10192     10195     10197     10202
     10193     10192     10195     10196     10193     10192     10195     10197
     10194     10192     10195     10196     10194     10192     10195     10197
     10195     10197     10198     10199     10195     10197     10198     10200
     10195     10197     10198     10201     10195     10197     10202     10203
     10195     10197     10202     10204     10195     10197     10202     10205
     10196     10195     10197     10198     10196     10195     10197     10202
     10197     10202     10205     10206     10197     10202     10205     10207
     10198     10197     10202     10203     10198     10197     10202     10204
     10198     10197     10202     10205     10199     10198     10197     10202
     10200     10198     10197     10202     10201     10198     10197     10202
     10203     10202     10205     10206     10203     10202     10205     10207
     10204     10202     10205     10206     10204     10202     10205     10207
     10208     10214     10217     10218     10208     10214     10217     10219
     10208     10214     10217     10220     10209     10208     10210     10211
     10209     10208     10210     10212     10209     10208     10210     10213
     10209     10208     10214     10215     10209     10208     10214     10216
     10209     10208     10214     10217     10210     10208     10214     10215
     10210     10208     10214     10216     10210     10208     10214     10217
     10211     10210     10208     10214     10212     10210     10208     10214
     10213     10210     10208     10214     10214     10217     10220     10221
     10214     10217     10220     10222     10214     10217     10220     10223
     10215     10214     10217     10218     10215     10214     10217     10219
     10215     10214     10217     10220     10216     10214     10217     10218
     10216     10214     10217     10219     10216     10214     10217     10220
     10217     10220     10223     10224     10217     10220     10223     10225
     10217     10220     10223     10229     10218     10217     10220     10221
     10218     10217     10220     10222     10218     10217     10220     10223
     10219     10217     10220     10221     10219     10217     10220     10222
     10219     10217     10220     10223     10220     10223     10225     10226
     10220     10223     10225     10227     10220     10223     10225     10228
     10220     10223     10229     10230     10220     10223     10229     10231
     10220     10223     10229     10232     10221     10220     10223     10224
     10221     10220     10223     10225     10221     10220     10223     10229
     10222     10220     10223     10224     10222     10220     10223     10225
     10222     10220     10223     10229     10224     10223     10225     10226
     10224     10223     10225     10227     10224     10223     10225     10228
     10224     10223     10229     10230     10224     10223     10229     10231
     10224     10223     10229     10232     10225     10223     10229     10230
     10225     10223     10229     10231     10225     10223     10229     10232
     10226     10225     10223     10229     10227     10225     10223     10229
     10228     10225     10223     10229     10233     10237     10240     10241
     10233     10237     10240     10242     10233     10237     10240     10246
     10234     10233     10237     10238     10234     10233     10237     10239
     10234     10233     10237     10240     10235     10233     10237     10238
     10235     10233     10237     10239     10235     10233     10237     10240
     10236     10233     10237     10238     10236     10233     10237     10239
     10236     10233     10237     10240     10237     10240     10246     10243
     10238     10237     10240     10241     10238     10237     10240     10242
     10238     10237     10240     10246     10239     10237     10240     10241
     10239     10237     10240     10242     10239     10237     10240     10246
     10240     10246     10243     10244     10240     10246     10243     10245
     10240     10246     10243     10247     10241     10240     10246     10243
     10242     10240     10246     10243     10243     10247     10248     10249
     10243     10247     10248     10250     10243     10247     10248     10251
     10244     10243     10247     10248     10245     10243     10247     10248
     10246     10243     10247     10248     10247     10248     10251     10252
     10247     10248     10251     10253     10247     10248     10251     10259
     10248     10251     10253     10254     10248     10251     10259     10260
     10248     10251     10259     10261     10248     10251     10259     10262
     10249     10248     10251     10252     10249     10248     10251     10253
     10249     10248     10251     10259     10250     10248     10251     10252
     10250     10248     10251     10253     10250     10248     10251     10259
     10251     10253     10254     10255     10251     10253     10254     10256
     10251     10259     10262     10263     10252     10251     10253     10254
     10252     10251     10259     10260     10252     10251     10259     10261
     10252     10251     10259     10262     10253     10251     10259     10260
     10253     10251     10259     10261     10253     10251     10259     10262
     10253     10254     10256     10257     10253     10254     10256     10258
     10253     10254     10256     10268     10254     10253     10251     10259
     10254     10256     10268     10269     10254     10256     10268     10270
     10254     10256     10268     10271     10255     10254     10256     10257
     10255     10254     10256     10258     10255     10254     10256     10268
     10256     10268     10271     10272     10256     10268     10271     10273
     10256     10268     10271     10274     10257     10256     10268     10269
     10257     10256     10268     10270     10257     10256     10268     10271
     10258     10256     10268     10269     10258     10256     10268     10270
     10258     10256     10268     10271     10259     10262     10263     10264
     10259     10262     10263     10265     10260     10259     10262     10263
     10261     10259     10262     10263     10262     10263     10265     10266
     10262     10263     10265     10267     10262     10263     10265     10315
     10263     10265     10315     10316     10263     10265     10315     10317
     10263     10265     10315     10318     10264     10263     10265     10266
     10264     10263     10265     10267     10264     10263     10265     10315
     10265     10315     10318     10319     10265     10315     10318     10320
     10265     10315     10318     10321     10266     10265     10315     10316
     10266     10265     10315     10317     10266     10265     10315     10318
     10267     10265     10315     10316     10267     10265     10315     10317
     10267     10265     10315     10318     10268     10271     10274     10275
     10268     10271     10274     10276     10269     10268     10271     10272
     10269     10268     10271     10273     10269     10268     10271     10274
     10270     10268     10271     10272     10270     10268     10271     10273
     10270     10268     10271     10274     10271     10274     10276     10277
     10271     10274     10276     10278     10272     10271     10274     10275
     10272     10271     10274     10276     10273     10271     10274     10275
     10273     10271     10274     10276     10274     10276     10278     10279
     10274     10276     10278     10280     10274     10276     10278     10281
     10275     10274     10276     10277     10275     10274     10276     10278
     10276     10278     10281     10282     10276     10278     10281     10283
     10277     10276     10278     10279     10277     10276     10278     10280
     10277     10276     10278     10281     10278     10281     10283     10284
     10278     10281     10283     10285     10279     10278     10281     10282
     10279     10278     10281     10283     10280     10278     10281     10282
     10280     10278     10281     10283     10281     10283     10285     10286
     10281     10283     10285     10287     10281     10283     10285     10288
     10282     10281     10283     10284     10282     10281     10283     10285
     10283     10285     10288     10289     10283     10285     10288     10290
     10284     10283     10285     10286     10284     10283     10285     10287
     10284     10283     10285     10288     10285     10288     10290     10291
     10285     10288     10290     10292     10286     10285     10288     10289
     10286     10285     10288     10290     10287     10285     10288     10289
     10287     10285     10288     10290     10288     10290     10292     10293
     10288     10290     10292     10294     10288     10290     10292     10295
     10289     10288     10290     10291     10289     10288     10290     10292
     10290     10292     10295     10296     10290     10292     10295     10297
     10291     10290     10292     10293     10291     10290     10292     10294
     10291     10290     10292     10295     10292     10295     10297     10298
     10292     10295     10297     10299     10293     10292     10295     10296
     10293     10292     10295     10297     10294     10292     10295     10296
     10294     10292     10295     10297     10295     10297     10299     10300
     10295     10297     10299     10301     10295     10297     10299     10302
     10296     10295     10297     10298     10296     10295     10297     10299
     10297     10299     10302     10303     10297     10299     10302     10304
     10297     10299     10302     10305     10298     10297     10299     10300
     10298     10297     10299     10301     10298     10297     10299     10302
     10299     10302     10305     10306     10299     10302     10305     10307
     10299     10302     10305     10308     10300     10299     10302     10303
     10300     10299     10302     10304     10300     10299     10302     10305
     10301     10299     10302     10303     10301     10299     10302     10304
     10301     10299     10302     10305     10302     10305     10308     10309
     10302     10305     10308     10310     10302     10305     10308     10311
     10303     10302     10305     10306     10303     10302     10305     10307
     10303     10302     10305     10308     10304     10302     10305     10306
     10304     10302     10305     10307     10304     10302     10305     10308
     10305     10308     10311     10312     10305     10308     10311     10313
     10305     10308     10311     10314     10306     10305     10308     10309
     10306     10305     10308     10310     10306     10305     10308     10311
     10307     10305     10308     10309     10307     10305     10308     10310
     10307     10305     10308     10311     10309     10308     10311     10312
     10309     10308     10311     10313     10309     10308     10311     10314
     10310     10308     10311     10312     10310     10308     10311     10313
     10310     10308     10311     10314     10315     10318     10321     10322
     10315     10318     10321     10323     10315     10318     10321     10324
     10316     10315     10318     10319     10316     10315     10318     10320
     10316     10315     10318     10321     10317     10315     10318     10319
     10317     10315     10318     10320     10317     10315     10318     10321
     10318     10321     10324     10325     10318     10321     10324     10326
     10318     10321     10324     10327     10319     10318     10321     10322
     10319     10318     10321     10323     10319     10318     10321     10324
     10320     10318     10321     10322     10320     10318     10321     10323
     10320     10318     10321     10324     10321     10324     10327     10328
     10321     10324     10327     10329     10321     10324     10327     10330
     10322     10321     10324     10325     10322     10321     10324     10326
     10322     10321     10324     10327     10323     10321     10324     10325
     10323     10321     10324     10326     10323     10321     10324     10327
     10324     10327     10330     10331     10324     10327     10330     10332
     10324     10327     10330     10333     10325     10324     10327     10328
     10325     10324     10327     10329     10325     10324     10327     10330
     10326     10324     10327     10328     10326     10324     10327     10329
     10326     10324     10327     10330     10327     10330     10333     10334
     10327     10330     10333     10335     10327     10330     10333     10336
     10328     10327     10330     10331     10328     10327     10330     10332
     10328     10327     10330     10333     10329     10327     10330     10331
     10329     10327     10330     10332     10329     10327     10330     10333
     10330     10333     10336     10337     10330     10333     10336     10338
     10330     10333     10336     10339     10331     10330     10333     10334
     10331     10330     10333     10335     10331     10330     10333     10336
     10332     10330     10333     10334     10332     10330     10333     10335
     10332     10330     10333     10336     10333     10336     10339     10340
     10333     10336     10339     10341     10333     10336     10339     10342
     10334     10333     10336     10337     10334     10333     10336     10338
     10334     10333     10336     10339     10335     10333     10336     10337
     10335     10333     10336     10338     10335     10333     10336     10339
     10336     10339     10342     10343     10336     10339     10342     10344
     10336     10339     10342     10345     10337     10336     10339     10340
     10337     10336     10339     10341     10337     10336     10339     10342
     10338     10336     10339     10340     10338     10336     10339     10341
     10338     10336     10339     10342     10339     10342     10345     10346
     10339     10342     10345     10347     10339     10342     10345     10348
     10340     10339     10342     10343     10340     10339     10342     10344
     10340     10339     10342     10345     10341     10339     10342     10343
     10341     10339     10342     10344     10341     10339     10342     10345
     10342     10345     10348     10349     10342     10345     10348     10350
     10342     10345     10348     10351     10343     10342     10345     10346
     10343     10342     10345     10347     10343     10342     10345     10348
     10344     10342     10345     10346     10344     10342     10345     10347
     10344     10342     10345     10348     10345     10348     10351     10352
     10345     10348     10351     10353     10345     10348     10351     10354
     10346     10345     10348     10349     10346     10345     10348     10350
     10346     10345     10348     10351     10347     10345     10348     10349
     10347     10345     10348     10350     10347     10345     10348     10351
     10348     10351     10354     10355     10348     10351     10354     10356
     10348     10351     10354     10357     10349     10348     10351     10352
     10349     10348     10351     10353     10349     10348     10351     10354
     10350     10348     10351     10352     10350     10348     10351     10353
     10350     10348     10351     10354     10351     10354     10357     10358
     10351     10354     10357     10359     10351     10354     10357     10360
     10352     10351     10354     10355     10352     10351     10354     10356
     10352     10351     10354     10357     10353     10351     10354     10355
     10353     10351     10354     10356     10353     10351     10354     10357
     10354     10357     10360     10361     10354     10357     10360     10362
     10354     10357     10360     10363     10355     10354     10357     10358
     10355     10354     10357     10359     10355     10354     10357     10360
     10356     10354     10357     10358     10356     10354     10357     10359
     10356     10354     10357     10360     10358     10357     10360     10361
     10358     10357     10360     10362     10358     10357     10360     10363
     10359     10357     10360     10361     10359     10357     10360     10362
     10359     10357     10360     10363     10364     10377     10380     10381
     10364     10377     10380     10382     10364     10377     10380     10387
     10365     10364     10369     10370     10365     10364     10369     10371
     10365     10364     10369     10372     10365     10364     10373     10374
     10365     10364     10373     10375     10365     10364     10373     10376
     10365     10364     10377     10378     10365     10364     10377     10379
     10365     10364     10377     10380     10366     10365     10364     10369
     10366     10365     10364     10373     10366     10365     10364     10377
     10367     10365     10364     10369     10367     10365     10364     10373
     10367     10365     10364     10377     10368     10365     10364     10369
     10368     10365     10364     10373     10368     10365     10364     10377
     10369     10364     10373     10374     10369     10364     10373     10375
     10369     10364     10373     10376     10369     10364     10377     10378
     10369     10364     10377     10379     10369     10364     10377     10380
     10370     10369     10364     10373     10370     10369     10364     10377
     10371     10369     10364     10373     10371     10369     10364     10377
     10372     10369     10364     10373     10372     10369     10364     10377
     10373     10364     10377     10378     10373     10364     10377     10379
     10373     10364     10377     10380     10374     10373     10364     10377
     10375     10373     10364     10377     10376     10373     10364     10377
     10377     10380     10387     10383     10378     10377     10380     10381
     10378     10377     10380     10382     10378     10377     10380     10387
     10379     10377     10380     10381     10379     10377     10380     10382
     10379     10377     10380     10387     10380     10387     10383     10384
     10380     10387     10383     10385     10380     10387     10383     10386
     10381     10380     10387     10383     10382     10380     10387     10383
     10383     10386     10388     10389     10383     10386     10388     10390
     10383     10386     10388     10393     10384     10383     10386     10388
     10385     10383     10386     10388     10386     10388     10393     10391
     10386     10388     10393     10394     10386     10388     10393     10395
     10387     10383     10386     10388     10388     10393     10391     10392
     10388     10393     10391     10443     10388     10393     10395     10396
     10388     10393     10395     10397     10388     10393     10395     10399
     10389     10388     10393     10391     10389     10388     10393     10394
     10389     10388     10393     10395     10390     10388     10393     10391
     10390     10388     10393     10394     10390     10388     10393     10395
     10391     10393     10395     10396     10391     10393     10395     10397
     10391     10393     10395     10399     10391     10443     10445     10446
     10391     10443     10445     10447     10391     10443     10445     10448
     10392     10391     10393     10394     10392     10391     10393     10395
     10392     10391     10443     10444     10392     10391     10443     10445
     10393     10391     10443     10444     10393     10391     10443     10445
     10393     10395     10397     10398     10393     10395     10399     10400
     10393     10395     10399     10401     10394     10393     10391     10443
     10394     10393     10395     10396     10394     10393     10395     10397
     10394     10393     10395     10399     10395     10393     10391     10443
     10395     10399     10401     10402     10395     10399     10401     10403
     10396     10395     10397     10398     10396     10395     10399     10400
     10396     10395     10399     10401     10397     10395     10399     10400
     10397     10395     10399     10401     10398     10397     10395     10399
     10399     10401     10403     10404     10399     10401     10403     10405
     10399     10401     10403     10406     10400     10399     10401     10402
     10400     10399     10401     10403     10401     10403     10406     10407
     10401     10403     10406     10408     10401     10403     10406     10409
     10402     10401     10403     10404     10402     10401     10403     10405
     10402     10401     10403     10406     10403     10406     10409     10410
     10403     10406     10409     10411     10403     10406     10409     10412
     10404     10403     10406     10407     10404     10403     10406     10408
     10404     10403     10406     10409     10405     10403     10406     10407
     10405     10403     10406     10408     10405     10403     10406     10409
     10406     10409     10412     10413     10406     10409     10412     10414
     10406     10409     10412     10415     10407     10406     10409     10410
     10407     10406     10409     10411     10407     10406     10409     10412
     10408     10406     10409     10410     10408     10406     10409     10411
     10408     10406     10409     10412     10409     10412     10415     10416
     10409     10412     10415     10417     10409     10412     10415     10418
     10410     10409     10412     10413     10410     10409     10412     10414
     10410     10409     10412     10415     10411     10409     10412     10413
     10411     10409     10412     10414     10411     10409     10412     10415
     10412     10415     10418     10419     10412     10415     10418     10420
     10412     10415     10418     10421     10413     10412     10415     10416
     10413     10412     10415     10417     10413     10412     10415     10418
     10414     10412     10415     10416     10414     10412     10415     10417
     10414     10412     10415     10418     10415     10418     10421     10422
     10415     10418     10421     10423     10415     10418     10421     10424
     10416     10415     10418     10419     10416     10415     10418     10420
     10416     10415     10418     10421     10417     10415     10418     10419
     10417     10415     10418     10420     10417     10415     10418     10421
     10418     10421     10424     10425     10418     10421     10424     10426
     10418     10421     10424     10427     10419     10418     10421     10422
     10419     10418     10421     10423     10419     10418     10421     10424
     10420     10418     10421     10422     10420     10418     10421     10423
     10420     10418     10421     10424     10421     10424     10427     10428
     10421     10424     10427     10429     10421     10424     10427     10430
     10422     10421     10424     10425     10422     10421     10424     10426
     10422     10421     10424     10427     10423     10421     10424     10425
     10423     10421     10424     10426     10423     10421     10424     10427
     10424     10427     10430     10431     10424     10427     10430     10432
     10424     10427     10430     10433     10425     10424     10427     10428
     10425     10424     10427     10429     10425     10424     10427     10430
     10426     10424     10427     10428     10426     10424     10427     10429
     10426     10424     10427     10430     10427     10430     10433     10434
     10427     10430     10433     10435     10427     10430     10433     10436
     10428     10427     10430     10431     10428     10427     10430     10432
     10428     10427     10430     10433     10429     10427     10430     10431
     10429     10427     10430     10432     10429     10427     10430     10433
     10430     10433     10436     10437     10430     10433     10436     10438
     10430     10433     10436     10439     10431     10430     10433     10434
     10431     10430     10433     10435     10431     10430     10433     10436
     10432     10430     10433     10434     10432     10430     10433     10435
     10432     10430     10433     10436     10433     10436     10439     10440
     10433     10436     10439     10441     10433     10436     10439     10442
     10434     10433     10436     10437     10434     10433     10436     10438
     10434     10433     10436     10439     10435     10433     10436     10437
     10435     10433     10436     10438     10435     10433     10436     10439
     10437     10436     10439     10440     10437     10436     10439     10441
     10437     10436     10439     10442     10438     10436     10439     10440
     10438     10436     10439     10441     10438     10436     10439     10442
     10443     10445     10448     10449     10443     10445     10448     10450
     10443     10445     10448     10451     10444     10443     10445     10446
     10444     10443     10445     10447     10444     10443     10445     10448
     10445     10448     10451     10452     10445     10448     10451     10453
     10445     10448     10451     10454     10446     10445     10448     10449
     10446     10445     10448     10450     10446     10445     10448     10451
     10447     10445     10448     10449     10447     10445     10448     10450
     10447     10445     10448     10451     10448     10451     10454     10455
     10448     10451     10454     10456     10448     10451     10454     10457
     10449     10448     10451     10452     10449     10448     10451     10453
     10449     10448     10451     10454     10450     10448     10451     10452
     10450     10448     10451     10453     10450     10448     10451     10454
     10451     10454     10457     10458     10451     10454     10457     10459
     10451     10454     10457     10460     10452     10451     10454     10455
     10452     10451     10454     10456     10452     10451     10454     10457
     10453     10451     10454     10455     10453     10451     10454     10456
     10453     10451     10454     10457     10454     10457     10460     10461
     10454     10457     10460     10462     10454     10457     10460     10463
     10455     10454     10457     10458     10455     10454     10457     10459
     10455     10454     10457     10460     10456     10454     10457     10458
     10456     10454     10457     10459     10456     10454     10457     10460
     10457     10460     10463     10464     10457     10460     10463     10465
     10457     10460     10463     10466     10458     10457     10460     10461
     10458     10457     10460     10462     10458     10457     10460     10463
     10459     10457     10460     10461     10459     10457     10460     10462
     10459     10457     10460     10463     10460     10463     10466     10467
     10460     10463     10466     10468     10461     10460     10463     10464
     10461     10460     10463     10465     10461     10460     10463     10466
     10462     10460     10463     10464     10462     10460     10463     10465
     10462     10460     10463     10466     10463     10466     10468     10469
     10463     10466     10468     10470     10464     10463     10466     10467
     10464     10463     10466     10468     10465     10463     10466     10467
     10465     10463     10466     10468     10466     10468     10470     10471
     10466     10468     10470     10472     10466     10468     10470     10473
     10467     10466     10468     10469     10467     10466     10468     10470
     10468     10470     10473     10474     10468     10470     10473     10475
     10468     10470     10473     10476     10469     10468     10470     10471
     10469     10468     10470     10472     10469     10468     10470     10473
     10470     10473     10476     10477     10470     10473     10476     10478
     10470     10473     10476     10479     10471     10470     10473     10474
     10471     10470     10473     10475     10471     10470     10473     10476
     10472     10470     10473     10474     10472     10470     10473     10475
     10472     10470     10473     10476     10473     10476     10479     10480
     10473     10476     10479     10481     10473     10476     10479     10482
     10474     10473     10476     10477     10474     10473     10476     10478
     10474     10473     10476     10479     10475     10473     10476     10477
     10475     10473     10476     10478     10475     10473     10476     10479
     10476     10479     10482     10483     10476     10479     10482     10484
     10476     10479     10482     10485     10477     10476     10479     10480
     10477     10476     10479     10481     10477     10476     10479     10482
     10478     10476     10479     10480     10478     10476     10479     10481
     10478     10476     10479     10482     10479     10482     10485     10486
     10479     10482     10485     10487     10479     10482     10485     10488
     10480     10479     10482     10483     10480     10479     10482     10484
     10480     10479     10482     10485     10481     10479     10482     10483
     10481     10479     10482     10484     10481     10479     10482     10485
     10482     10485     10488     10489     10482     10485     10488     10490
     10482     10485     10488     10491     10483     10482     10485     10486
     10483     10482     10485     10487     10483     10482     10485     10488
     10484     10482     10485     10486     10484     10482     10485     10487
     10484     10482     10485     10488     10485     10488     10491     10492
     10485     10488     10491     10493     10485     10488     10491     10494
     10486     10485     10488     10489     10486     10485     10488     10490
     10486     10485     10488     10491     10487     10485     10488     10489
     10487     10485     10488     10490     10487     10485     10488     10491
     10489     10488     10491     10492     10489     10488     10491     10493
     10489     10488     10491     10494     10490     10488     10491     10492
     10490     10488     10491     10493     10490     10488     10491     10494
     10495     10499     10501     10502     10495     10499     10501     10503
     10495     10499     10504     10505     10495     10499     10504     10506
     10495     10499     10504     10510     10496     10495     10499     10500
     10496     10495     10499     10501     10496     10495     10499     10504
     10497     10495     10499     10500     10497     10495     10499     10501
     10497     10495     10499     10504     10498     10495     10499     10500
     10498     10495     10499     10501     10498     10495     10499     10504
     10499     10504     10510     10507     10500     10499     10501     10502
     10500     10499     10501     10503     10500     10499     10504     10505
     10500     10499     10504     10506     10500     10499     10504     10510
     10501     10499     10504     10505     10501     10499     10504     10506
     10501     10499     10504     10510     10502     10501     10499     10504
     10503     10501     10499     10504     10504     10510     10507     10508
     10504     10510     10507     10509     10504     10510     10507     10511
     10505     10504     10510     10507     10506     10504     10510     10507
     10507     10511     10512     10513     10507     10511     10512     10514
     10507     10511     10512     10515     10508     10507     10511     10512
     10509     10507     10511     10512     10510     10507     10511     10512
     10511     10512     10515     10516     10511     10512     10515     10517
     10511     10512     10515     10523     10512     10515     10517     10518
     10512     10515     10523     10524     10512     10515     10523     10525
     10512     10515     10523     10526     10513     10512     10515     10516
     10513     10512     10515     10517     10513     10512     10515     10523
     10514     10512     10515     10516     10514     10512     10515     10517
     10514     10512     10515     10523     10515     10517     10518     10519
     10515     10517     10518     10520     10515     10523     10526     10527
     10516     10515     10517     10518     10516     10515     10523     10524
     10516     10515     10523     10525     10516     10515     10523     10526
     10517     10515     10523     10524     10517     10515     10523     10525
     10517     10515     10523     10526     10517     10518     10520     10521
     10517     10518     10520     10522     10517     10518     10520     10532
     10518     10517     10515     10523     10518     10520     10532     10533
     10518     10520     10532     10534     10518     10520     10532     10535
     10519     10518     10520     10521     10519     10518     10520     10522
     10519     10518     10520     10532     10520     10532     10535     10536
     10520     10532     10535     10537     10520     10532     10535     10538
     10521     10520     10532     10533     10521     10520     10532     10534
     10521     10520     10532     10535     10522     10520     10532     10533
     10522     10520     10532     10534     10522     10520     10532     10535
     10523     10526     10527     10528     10523     10526     10527     10529
     10524     10523     10526     10527     10525     10523     10526     10527
     10526     10527     10529     10530     10526     10527     10529     10531
     10526     10527     10529     10579     10527     10529     10579     10580
     10527     10529     10579     10581     10527     10529     10579     10582
     10528     10527     10529     10530     10528     10527     10529     10531
     10528     10527     10529     10579     10529     10579     10582     10583
     10529     10579     10582     10584     10529     10579     10582     10585
     10530     10529     10579     10580     10530     10529     10579     10581
     10530     10529     10579     10582     10531     10529     10579     10580
     10531     10529     10579     10581     10531     10529     10579     10582
     10532     10535     10538     10539     10532     10535     10538     10540
     10533     10532     10535     10536     10533     10532     10535     10537
     10533     10532     10535     10538     10534     10532     10535     10536
     10534     10532     10535     10537     10534     10532     10535     10538
     10535     10538     10540     10541     10535     10538     10540     10542
     10536     10535     10538     10539     10536     10535     10538     10540
     10537     10535     10538     10539     10537     10535     10538     10540
     10538     10540     10542     10543     10538     10540     10542     10544
     10538     10540     10542     10545     10539     10538     10540     10541
     10539     10538     10540     10542     10540     10542     10545     10546
     10540     10542     10545     10547     10541     10540     10542     10543
     10541     10540     10542     10544     10541     10540     10542     10545
     10542     10545     10547     10548     10542     10545     10547     10549
     10543     10542     10545     10546     10543     10542     10545     10547
     10544     10542     10545     10546     10544     10542     10545     10547
     10545     10547     10549     10550     10545     10547     10549     10551
     10545     10547     10549     10552     10546     10545     10547     10548
     10546     10545     10547     10549     10547     10549     10552     10553
     10547     10549     10552     10554     10548     10547     10549     10550
     10548     10547     10549     10551     10548     10547     10549     10552
     10549     10552     10554     10555     10549     10552     10554     10556
     10550     10549     10552     10553     10550     10549     10552     10554
     10551     10549     10552     10553     10551     10549     10552     10554
     10552     10554     10556     10557     10552     10554     10556     10558
     10552     10554     10556     10559     10553     10552     10554     10555
     10553     10552     10554     10556     10554     10556     10559     10560
     10554     10556     10559     10561     10555     10554     10556     10557
     10555     10554     10556     10558     10555     10554     10556     10559
     10556     10559     10561     10562     10556     10559     10561     10563
     10557     10556     10559     10560     10557     10556     10559     10561
     10558     10556     10559     10560     10558     10556     10559     10561
     10559     10561     10563     10564     10559     10561     10563     10565
     10559     10561     10563     10566     10560     10559     10561     10562
     10560     10559     10561     10563     10561     10563     10566     10567
     10561     10563     10566     10568     10561     10563     10566     10569
     10562     10561     10563     10564     10562     10561     10563     10565
     10562     10561     10563     10566     10563     10566     10569     10570
     10563     10566     10569     10571     10563     10566     10569     10572
     10564     10563     10566     10567     10564     10563     10566     10568
     10564     10563     10566     10569     10565     10563     10566     10567
     10565     10563     10566     10568     10565     10563     10566     10569
     10566     10569     10572     10573     10566     10569     10572     10574
     10566     10569     10572     10575     10567     10566     10569     10570
     10567     10566     10569     10571     10567     10566     10569     10572
     10568     10566     10569     10570     10568     10566     10569     10571
     10568     10566     10569     10572     10569     10572     10575     10576
     10569     10572     10575     10577     10569     10572     10575     10578
     10570     10569     10572     10573     10570     10569     10572     10574
     10570     10569     10572     10575     10571     10569     10572     10573
     10571     10569     10572     10574     10571     10569     10572     10575
     10573     10572     10575     10576     10573     10572     10575     10577
     10573     10572     10575     10578     10574     10572     10575     10576
     10574     10572     10575     10577     10574     10572     10575     10578
     10579     10582     10585     10586     10579     10582     10585     10587
     10579     10582     10585     10588     10580     10579     10582     10583
     10580     10579     10582     10584     10580     10579     10582     10585
     10581     10579     10582     10583     10581     10579     10582     10584
     10581     10579     10582     10585     10582     10585     10588     10589
     10582     10585     10588     10590     10582     10585     10588     10591
     10583     10582     10585     10586     10583     10582     10585     10587
     10583     10582     10585     10588     10584     10582     10585     10586
     10584     10582     10585     10587     10584     10582     10585     10588
     10585     10588     10591     10592     10585     10588     10591     10593
     10585     10588     10591     10594     10586     10585     10588     10589
     10586     10585     10588     10590     10586     10585     10588     10591
     10587     10585     10588     10589     10587     10585     10588     10590
     10587     10585     10588     10591     10588     10591     10594     10595
     10588     10591     10594     10596     10588     10591     10594     10597
     10589     10588     10591     10592     10589     10588     10591     10593
     10589     10588     10591     10594     10590     10588     10591     10592
     10590     10588     10591     10593     10590     10588     10591     10594
     10591     10594     10597     10598     10591     10594     10597     10599
     10591     10594     10597     10600     10592     10591     10594     10595
     10592     10591     10594     10596     10592     10591     10594     10597
     10593     10591     10594     10595     10593     10591     10594     10596
     10593     10591     10594     10597     10594     10597     10600     10601
     10594     10597     10600     10602     10594     10597     10600     10603
     10595     10594     10597     10598     10595     10594     10597     10599
     10595     10594     10597     10600     10596     10594     10597     10598
     10596     10594     10597     10599     10596     10594     10597     10600
     10597     10600     10603     10604     10597     10600     10603     10605
     10597     10600     10603     10606     10598     10597     10600     10601
     10598     10597     10600     10602     10598     10597     10600     10603
     10599     10597     10600     10601     10599     10597     10600     10602
     10599     10597     10600     10603     10600     10603     10606     10607
     10600     10603     10606     10608     10600     10603     10606     10609
     10601     10600     10603     10604     10601     10600     10603     10605
     10601     10600     10603     10606     10602     10600     10603     10604
     10602     10600     10603     10605     10602     10600     10603     10606
     10603     10606     10609     10610     10603     10606     10609     10611
     10603     10606     10609     10612     10604     10603     10606     10607
     10604     10603     10606     10608     10604     10603     10606     10609
     10605     10603     10606     10607     10605     10603     10606     10608
     10605     10603     10606     10609     10606     10609     10612     10613
     10606     10609     10612     10614     10606     10609     10612     10615
     10607     10606     10609     10610     10607     10606     10609     10611
     10607     10606     10609     10612     10608     10606     10609     10610
     10608     10606     10609     10611     10608     10606     10609     10612
     10609     10612     10615     10616     10609     10612     10615     10617
     10609     10612     10615     10618     10610     10609     10612     10613
     10610     10609     10612     10614     10610     10609     10612     10615
     10611     10609     10612     10613     10611     10609     10612     10614
     10611     10609     10612     10615     10612     10615     10618     10619
     10612     10615     10618     10620     10612     10615     10618     10621
     10613     10612     10615     10616     10613     10612     10615     10617
     10613     10612     10615     10618     10614     10612     10615     10616
     10614     10612     10615     10617     10614     10612     10615     10618
     10615     10618     10621     10622     10615     10618     10621     10623
     10615     10618     10621     10624     10616     10615     10618     10619
     10616     10615     10618     10620     10616     10615     10618     10621
     10617     10615     10618     10619     10617     10615     10618     10620
     10617     10615     10618     10621     10618     10621     10624     10625
     10618     10621     10624     10626     10618     10621     10624     10627
     10619     10618     10621     10622     10619     10618     10621     10623
     10619     10618     10621     10624     10620     10618     10621     10622
     10620     10618     10621     10623     10620     10618     10621     10624
     10622     10621     10624     10625     10622     10621     10624     10626
     10622     10621     10624     10627     10623     10621     10624     10625
     10623     10621     10624     10626     10623     10621     10624     10627
     10628     10629     10644     10645     10628     10629     10644     10646
     10628     10629     10644     10650     10629     10628     10632     10633
     10629     10628     10632     10634     10629     10628     10632     10635
     10629     10628     10636     10637     10629     10628     10636     10638
     10629     10628     10636     10639     10629     10628     10640     10641
     10629     10628     10640     10642     10629     10628     10640     10643
     10629     10644     10650     10647     10630     10629     10628     10632
     10630     10629     10628     10636     10630     10629     10628     10640
     10630     10629     10644     10645     10630     10629     10644     10646
     10630     10629     10644     10650     10631     10629     10628     10632
     10631     10629     10628     10636     10631     10629     10628     10640
     10631     10629     10644     10645     10631     10629     10644     10646
     10631     10629     10644     10650     10632     10628     10629     10644
     10632     10628     10636     10637     10632     10628     10636     10638
     10632     10628     10636     10639     10632     10628     10640     10641
     10632     10628     10640     10642     10632     10628     10640     10643
     10633     10632     10628     10636     10633     10632     10628     10640
     10634     10632     10628     10636     10634     10632     10628     10640
     10635     10632     10628     10636     10635     10632     10628     10640
     10636     10628     10629     10644     10636     10628     10640     10641
     10636     10628     10640     10642     10636     10628     10640     10643
     10637     10636     10628     10640     10638     10636     10628     10640
     10639     10636     10628     10640     10640     10628     10629     10644
     10644     10650     10647     10648     10644     10650     10647     10649
     10644     10650     10647     10651     10645     10644     10650     10647
     10646     10644     10650     10647     10647     10651     10652     10653
     10647     10651     10652     10654     10647     10651     10652     10655
     10648     10647     10651     10652     10649     10647     10651     10652
     10650     10647     10651     10652     10651     10652     10655     10656
     10651     10652     10655     10657     10651     10652     10655     10663
     10652     10655     10657     10658     10652     10655     10663     10664
     10652     10655     10663     10665     10652     10655     10663     10666
     10653     10652     10655     10656     10653     10652     10655     10657
     10653     10652     10655     10663     10654     10652     10655     10656
     10654     10652     10655     10657     10654     10652     10655     10663
     10655     10657     10658     10659     10655     10657     10658     10660
     10655     10663     10666     10667     10656     10655     10657     10658
     10656     10655     10663     10664     10656     10655     10663     10665
     10656     10655     10663     10666     10657     10655     10663     10664
     10657     10655     10663     10665     10657     10655     10663     10666
     10657     10658     10660     10661     10657     10658     10660     10662
     10657     10658     10660     10672     10658     10657     10655     10663
     10658     10660     10672     10673     10658     10660     10672     10674
     10658     10660     10672     10675     10659     10658     10660     10661
     10659     10658     10660     10662     10659     10658     10660     10672
     10660     10672     10675     10676     10660     10672     10675     10677
     10660     10672     10675     10678     10661     10660     10672     10673
     10661     10660     10672     10674     10661     10660     10672     10675
     10662     10660     10672     10673     10662     10660     10672     10674
     10662     10660     10672     10675     10663     10666     10667     10668
     10663     10666     10667     10669     10664     10663     10666     10667
     10665     10663     10666     10667     10666     10667     10669     10670
     10666     10667     10669     10671     10666     10667     10669     10719
     10667     10669     10719     10720     10667     10669     10719     10721
     10667     10669     10719     10722     10668     10667     10669     10670
     10668     10667     10669     10671     10668     10667     10669     10719
     10669     10719     10722     10723     10669     10719     10722     10724
     10669     10719     10722     10725     10670     10669     10719     10720
     10670     10669     10719     10721     10670     10669     10719     10722
     10671     10669     10719     10720     10671     10669     10719     10721
     10671     10669     10719     10722     10672     10675     10678     10679
     10672     10675     10678     10680     10673     10672     10675     10676
     10673     10672     10675     10677     10673     10672     10675     10678
     10674     10672     10675     10676     10674     10672     10675     10677
     10674     10672     10675     10678     10675     10678     10680     10681
     10675     10678     10680     10682     10676     10675     10678     10679
     10676     10675     10678     10680     10677     10675     10678     10679
     10677     10675     10678     10680     10678     10680     10682     10683
     10678     10680     10682     10684     10678     10680     10682     10685
     10679     10678     10680     10681     10679     10678     10680     10682
     10680     10682     10685     10686     10680     10682     10685     10687
     10681     10680     10682     10683     10681     10680     10682     10684
     10681     10680     10682     10685     10682     10685     10687     10688
     10682     10685     10687     10689     10683     10682     10685     10686
     10683     10682     10685     10687     10684     10682     10685     10686
     10684     10682     10685     10687     10685     10687     10689     10690
     10685     10687     10689     10691     10685     10687     10689     10692
     10686     10685     10687     10688     10686     10685     10687     10689
     10687     10689     10692     10693     10687     10689     10692     10694
     10688     10687     10689     10690     10688     10687     10689     10691
     10688     10687     10689     10692     10689     10692     10694     10695
     10689     10692     10694     10696     10690     10689     10692     10693
     10690     10689     10692     10694     10691     10689     10692     10693
     10691     10689     10692     10694     10692     10694     10696     10697
     10692     10694     10696     10698     10692     10694     10696     10699
     10693     10692     10694     10695     10693     10692     10694     10696
     10694     10696     10699     10700     10694     10696     10699     10701
     10695     10694     10696     10697     10695     10694     10696     10698
     10695     10694     10696     10699     10696     10699     10701     10702
     10696     10699     10701     10703     10697     10696     10699     10700
     10697     10696     10699     10701     10698     10696     10699     10700
     10698     10696     10699     10701     10699     10701     10703     10704
     10699     10701     10703     10705     10699     10701     10703     10706
     10700     10699     10701     10702     10700     10699     10701     10703
     10701     10703     10706     10707     10701     10703     10706     10708
     10701     10703     10706     10709     10702     10701     10703     10704
     10702     10701     10703     10705     10702     10701     10703     10706
     10703     10706     10709     10710     10703     10706     10709     10711
     10703     10706     10709     10712     10704     10703     10706     10707
     10704     10703     10706     10708     10704     10703     10706     10709
     10705     10703     10706     10707     10705     10703     10706     10708
     10705     10703     10706     10709     10706     10709     10712     10713
     10706     10709     10712     10714     10706     10709     10712     10715
     10707     10706     10709     10710     10707     10706     10709     10711
     10707     10706     10709     10712     10708     10706     10709     10710
     10708     10706     10709     10711     10708     10706     10709     10712
     10709     10712     10715     10716     10709     10712     10715     10717
     10709     10712     10715     10718     10710     10709     10712     10713
     10710     10709     10712     10714     10710     10709     10712     10715
     10711     10709     10712     10713     10711     10709     10712     10714
     10711     10709     10712     10715     10713     10712     10715     10716
     10713     10712     10715     10717     10713     10712     10715     10718
     10714     10712     10715     10716     10714     10712     10715     10717
     10714     10712     10715     10718     10719     10722     10725     10726
     10719     10722     10725     10727     10719     10722     10725     10728
     10720     10719     10722     10723     10720     10719     10722     10724
     10720     10719     10722     10725     10721     10719     10722     10723
     10721     10719     10722     10724     10721     10719     10722     10725
     10722     10725     10728     10729     10722     10725     10728     10730
     10722     10725     10728     10731     10723     10722     10725     10726
     10723     10722     10725     10727     10723     10722     10725     10728
     10724     10722     10725     10726     10724     10722     10725     10727
     10724     10722     10725     10728     10725     10728     10731     10732
     10725     10728     10731     10733     10725     10728     10731     10734
     10726     10725     10728     10729     10726     10725     10728     10730
     10726     10725     10728     10731     10727     10725     10728     10729
     10727     10725     10728     10730     10727     10725     10728     10731
     10728     10731     10734     10735     10728     10731     10734     10736
     10728     10731     10734     10737     10729     10728     10731     10732
     10729     10728     10731     10733     10729     10728     10731     10734
     10730     10728     10731     10732     10730     10728     10731     10733
     10730     10728     10731     10734     10731     10734     10737     10738
     10731     10734     10737     10739     10731     10734     10737     10740
     10732     10731     10734     10735     10732     10731     10734     10736
     10732     10731     10734     10737     10733     10731     10734     10735
     10733     10731     10734     10736     10733     10731     10734     10737
     10734     10737     10740     10741     10734     10737     10740     10742
     10734     10737     10740     10743     10735     10734     10737     10738
     10735     10734     10737     10739     10735     10734     10737     10740
     10736     10734     10737     10738     10736     10734     10737     10739
     10736     10734     10737     10740     10737     10740     10743     10744
     10737     10740     10743     10745     10737     10740     10743     10746
     10738     10737     10740     10741     10738     10737     10740     10742
     10738     10737     10740     10743     10739     10737     10740     10741
     10739     10737     10740     10742     10739     10737     10740     10743
     10740     10743     10746     10747     10740     10743     10746     10748
     10740     10743     10746     10749     10741     10740     10743     10744
     10741     10740     10743     10745     10741     10740     10743     10746
     10742     10740     10743     10744     10742     10740     10743     10745
     10742     10740     10743     10746     10743     10746     10749     10750
     10743     10746     10749     10751     10743     10746     10749     10752
     10744     10743     10746     10747     10744     10743     10746     10748
     10744     10743     10746     10749     10745     10743     10746     10747
     10745     10743     10746     10748     10745     10743     10746     10749
     10746     10749     10752     10753     10746     10749     10752     10754
     10746     10749     10752     10755     10747     10746     10749     10750
     10747     10746     10749     10751     10747     10746     10749     10752
     10748     10746     10749     10750     10748     10746     10749     10751
     10748     10746     10749     10752     10749     10752     10755     10756
     10749     10752     10755     10757     10749     10752     10755     10758
     10750     10749     10752     10753     10750     10749     10752     10754
     10750     10749     10752     10755     10751     10749     10752     10753
     10751     10749     10752     10754     10751     10749     10752     10755
     10752     10755     10758     10759     10752     10755     10758     10760
     10752     10755     10758     10761     10753     10752     10755     10756
     10753     10752     10755     10757     10753     10752     10755     10758
     10754     10752     10755     10756     10754     10752     10755     10757
     10754     10752     10755     10758     10755     10758     10761     10762
     10755     10758     10761     10763     10755     10758     10761     10764
     10756     10755     10758     10759     10756     10755     10758     10760
     10756     10755     10758     10761     10757     10755     10758     10759
     10757     10755     10758     10760     10757     10755     10758     10761
     10758     10761     10764     10765     10758     10761     10764     10766
     10758     10761     10764     10767     10759     10758     10761     10762
     10759     10758     10761     10763     10759     10758     10761     10764
     10760     10758     10761     10762     10760     10758     10761     10763
     10760     10758     10761     10764     10762     10761     10764     10765
     10762     10761     10764     10766     10762     10761     10764     10767
     10763     10761     10764     10765     10763     10761     10764     10766
     10763     10761     10764     10767     10768     10772     10775     10776
     10768     10772     10775     10777     10768     10772     10775     10781
     10769     10768     10772     10773     10769     10768     10772     10774
     10769     10768     10772     10775     10770     10768     10772     10773
     10770     10768     10772     10774     10770     10768     10772     10775
     10771     10768     10772     10773     10771     10768     10772     10774
     10771     10768     10772     10775     10772     10775     10781     10778
     10773     10772     10775     10776     10773     10772     10775     10777
     10773     10772     10775     10781     10774     10772     10775     10776
     10774     10772     10775     10777     10774     10772     10775     10781
     10775     10781     10778     10779     10775     10781     10778     10780
     10775     10781     10778     10782     10776     10775     10781     10778
     10777     10775     10781     10778     10778     10782     10783     10784
     10778     10782     10783     10785     10778     10782     10783     10786
     10779     10778     10782     10783     10780     10778     10782     10783
     10781     10778     10782     10783     10782     10783     10786     10787
     10782     10783     10786     10788     10782     10783     10786     10794
     10783     10786     10788     10789     10783     10786     10794     10795
     10783     10786     10794     10796     10783     10786     10794     10797
     10784     10783     10786     10787     10784     10783     10786     10788
     10784     10783     10786     10794     10785     10783     10786     10787
     10785     10783     10786     10788     10785     10783     10786     10794
     10786     10788     10789     10790     10786     10788     10789     10791
     10786     10794     10797     10798     10787     10786     10788     10789
     10787     10786     10794     10795     10787     10786     10794     10796
     10787     10786     10794     10797     10788     10786     10794     10795
     10788     10786     10794     10796     10788     10786     10794     10797
     10788     10789     10791     10792     10788     10789     10791     10793
     10788     10789     10791     10803     10789     10788     10786     10794
     10789     10791     10803     10804     10789     10791     10803     10805
     10789     10791     10803     10806     10790     10789     10791     10792
     10790     10789     10791     10793     10790     10789     10791     10803
     10791     10803     10806     10807     10791     10803     10806     10808
     10791     10803     10806     10809     10792     10791     10803     10804
     10792     10791     10803     10805     10792     10791     10803     10806
     10793     10791     10803     10804     10793     10791     10803     10805
     10793     10791     10803     10806     10794     10797     10798     10799
     10794     10797     10798     10800     10795     10794     10797     10798
     10796     10794     10797     10798     10797     10798     10800     10801
     10797     10798     10800     10802     10797     10798     10800     10850
     10798     10800     10850     10851     10798     10800     10850     10852
     10798     10800     10850     10853     10799     10798     10800     10801
     10799     10798     10800     10802     10799     10798     10800     10850
     10800     10850     10853     10854     10800     10850     10853     10855
     10800     10850     10853     10856     10801     10800     10850     10851
     10801     10800     10850     10852     10801     10800     10850     10853
     10802     10800     10850     10851     10802     10800     10850     10852
     10802     10800     10850     10853     10803     10806     10809     10810
     10803     10806     10809     10811     10804     10803     10806     10807
     10804     10803     10806     10808     10804     10803     10806     10809
     10805     10803     10806     10807     10805     10803     10806     10808
     10805     10803     10806     10809     10806     10809     10811     10812
     10806     10809     10811     10813     10807     10806     10809     10810
     10807     10806     10809     10811     10808     10806     10809     10810
     10808     10806     10809     10811     10809     10811     10813     10814
     10809     10811     10813     10815     10809     10811     10813     10816
     10810     10809     10811     10812     10810     10809     10811     10813
     10811     10813     10816     10817     10811     10813     10816     10818
     10812     10811     10813     10814     10812     10811     10813     10815
     10812     10811     10813     10816     10813     10816     10818     10819
     10813     10816     10818     10820     10814     10813     10816     10817
     10814     10813     10816     10818     10815     10813     10816     10817
     10815     10813     10816     10818     10816     10818     10820     10821
     10816     10818     10820     10822     10816     10818     10820     10823
     10817     10816     10818     10819     10817     10816     10818     10820
     10818     10820     10823     10824     10818     10820     10823     10825
     10819     10818     10820     10821     10819     10818     10820     10822
     10819     10818     10820     10823     10820     10823     10825     10826
     10820     10823     10825     10827     10821     10820     10823     10824
     10821     10820     10823     10825     10822     10820     10823     10824
     10822     10820     10823     10825     10823     10825     10827     10828
     10823     10825     10827     10829     10823     10825     10827     10830
     10824     10823     10825     10826     10824     10823     10825     10827
     10825     10827     10830     10831     10825     10827     10830     10832
     10826     10825     10827     10828     10826     10825     10827     10829
     10826     10825     10827     10830     10827     10830     10832     10833
     10827     10830     10832     10834     10828     10827     10830     10831
     10828     10827     10830     10832     10829     10827     10830     10831
     10829     10827     10830     10832     10830     10832     10834     10835
     10830     10832     10834     10836     10830     10832     10834     10837
     10831     10830     10832     10833     10831     10830     10832     10834
     10832     10834     10837     10838     10832     10834     10837     10839
     10832     10834     10837     10840     10833     10832     10834     10835
     10833     10832     10834     10836     10833     10832     10834     10837
     10834     10837     10840     10841     10834     10837     10840     10842
     10834     10837     10840     10843     10835     10834     10837     10838
     10835     10834     10837     10839     10835     10834     10837     10840
     10836     10834     10837     10838     10836     10834     10837     10839
     10836     10834     10837     10840     10837     10840     10843     10844
     10837     10840     10843     10845     10837     10840     10843     10846
     10838     10837     10840     10841     10838     10837     10840     10842
     10838     10837     10840     10843     10839     10837     10840     10841
     10839     10837     10840     10842     10839     10837     10840     10843
     10840     10843     10846     10847     10840     10843     10846     10848
     10840     10843     10846     10849     10841     10840     10843     10844
     10841     10840     10843     10845     10841     10840     10843     10846
     10842     10840     10843     10844     10842     10840     10843     10845
     10842     10840     10843     10846     10844     10843     10846     10847
     10844     10843     10846     10848     10844     10843     10846     10849
     10845     10843     10846     10847     10845     10843     10846     10848
     10845     10843     10846     10849     10850     10853     10856     10857
     10850     10853     10856     10858     10850     10853     10856     10859
     10851     10850     10853     10854     10851     10850     10853     10855
     10851     10850     10853     10856     10852     10850     10853     10854
     10852     10850     10853     10855     10852     10850     10853     10856
     10853     10856     10859     10860     10853     10856     10859     10861
     10853     10856     10859     10862     10854     10853     10856     10857
     10854     10853     10856     10858     10854     10853     10856     10859
     10855     10853     10856     10857     10855     10853     10856     10858
     10855     10853     10856     10859     10856     10859     10862     10863
     10856     10859     10862     10864     10856     10859     10862     10865
     10857     10856     10859     10860     10857     10856     10859     10861
     10857     10856     10859     10862     10858     10856     10859     10860
     10858     10856     10859     10861     10858     10856     10859     10862
     10859     10862     10865     10866     10859     10862     10865     10867
     10859     10862     10865     10868     10860     10859     10862     10863
     10860     10859     10862     10864     10860     10859     10862     10865
     10861     10859     10862     10863     10861     10859     10862     10864
     10861     10859     10862     10865     10862     10865     10868     10869
     10862     10865     10868     10870     10862     10865     10868     10871
     10863     10862     10865     10866     10863     10862     10865     10867
     10863     10862     10865     10868     10864     10862     10865     10866
     10864     10862     10865     10867     10864     10862     10865     10868
     10865     10868     10871     10872     10865     10868     10871     10873
     10865     10868     10871     10874     10866     10865     10868     10869
     10866     10865     10868     10870     10866     10865     10868     10871
     10867     10865     10868     10869     10867     10865     10868     10870
     10867     10865     10868     10871     10868     10871     10874     10875
     10868     10871     10874     10876     10868     10871     10874     10877
     10869     10868     10871     10872     10869     10868     10871     10873
     10869     10868     10871     10874     10870     10868     10871     10872
     10870     10868     10871     10873     10870     10868     10871     10874
     10871     10874     10877     10878     10871     10874     10877     10879
     10871     10874     10877     10880     10872     10871     10874     10875
     10872     10871     10874     10876     10872     10871     10874     10877
     10873     10871     10874     10875     10873     10871     10874     10876
     10873     10871     10874     10877     10874     10877     10880     10881
     10874     10877     10880     10882     10874     10877     10880     10883
     10875     10874     10877     10878     10875     10874     10877     10879
     10875     10874     10877     10880     10876     10874     10877     10878
     10876     10874     10877     10879     10876     10874     10877     10880
     10877     10880     10883     10884     10877     10880     10883     10885
     10877     10880     10883     10886     10878     10877     10880     10881
     10878     10877     10880     10882     10878     10877     10880     10883
     10879     10877     10880     10881     10879     10877     10880     10882
     10879     10877     10880     10883     10880     10883     10886     10887
     10880     10883     10886     10888     10880     10883     10886     10889
     10881     10880     10883     10884     10881     10880     10883     10885
     10881     10880     10883     10886     10882     10880     10883     10884
     10882     10880     10883     10885     10882     10880     10883     10886
     10883     10886     10889     10890     10883     10886     10889     10891
     10883     10886     10889     10892     10884     10883     10886     10887
     10884     10883     10886     10888     10884     10883     10886     10889
     10885     10883     10886     10887     10885     10883     10886     10888
     10885     10883     10886     10889     10886     10889     10892     10893
     10886     10889     10892     10894     10886     10889     10892     10895
     10887     10886     10889     10890     10887     10886     10889     10891
     10887     10886     10889     10892     10888     10886     10889     10890
     10888     10886     10889     10891     10888     10886     10889     10892
     10889     10892     10895     10896     10889     10892     10895     10897
     10889     10892     10895     10898     10890     10889     10892     10893
     10890     10889     10892     10894     10890     10889     10892     10895
     10891     10889     10892     10893     10891     10889     10892     10894
     10891     10889     10892     10895     10893     10892     10895     10896
     10893     10892     10895     10897     10893     10892     10895     10898
     10894     10892     10895     10896     10894     10892     10895     10897
     10894     10892     10895     10898     10899     10903     10906     10907
     10899     10903     10906     10908     10899     10903     10906     10912
     10900     10899     10903     10904     10900     10899     10903     10905
     10900     10899     10903     10906     10901     10899     10903     10904
     10901     10899     10903     10905     10901     10899     10903     10906
     10902     10899     10903     10904     10902     10899     10903     10905
     10902     10899     10903     10906     10903     10906     10912     10909
     10904     10903     10906     10907     10904     10903     10906     10908
     10904     10903     10906     10912     10905     10903     10906     10907
     10905     10903     10906     10908     10905     10903     10906     10912
     10906     10912     10909     10910     10906     10912     10909     10911
     10906     10912     10909     10913     10907     10906     10912     10909
     10908     10906     10912     10909     10909     10913     10914     10915
     10909     10913     10914     10916     10909     10913     10914     10917
     10910     10909     10913     10914     10911     10909     10913     10914
     10912     10909     10913     10914     10913     10914     10917     10918
     10913     10914     10917     10919     10913     10914     10917     10925
     10914     10917     10919     10920     10914     10917     10925     10926
     10914     10917     10925     10927     10914     10917     10925     10928
     10915     10914     10917     10918     10915     10914     10917     10919
     10915     10914     10917     10925     10916     10914     10917     10918
     10916     10914     10917     10919     10916     10914     10917     10925
     10917     10919     10920     10921     10917     10919     10920     10922
     10917     10925     10928     10929     10918     10917     10919     10920
     10918     10917     10925     10926     10918     10917     10925     10927
     10918     10917     10925     10928     10919     10917     10925     10926
     10919     10917     10925     10927     10919     10917     10925     10928
     10919     10920     10922     10923     10919     10920     10922     10924
     10919     10920     10922     10934     10920     10919     10917     10925
     10920     10922     10934     10935     10920     10922     10934     10936
     10920     10922     10934     10937     10921     10920     10922     10923
     10921     10920     10922     10924     10921     10920     10922     10934
     10922     10934     10937     10938     10922     10934     10937     10939
     10922     10934     10937     10940     10923     10922     10934     10935
     10923     10922     10934     10936     10923     10922     10934     10937
     10924     10922     10934     10935     10924     10922     10934     10936
     10924     10922     10934     10937     10925     10928     10929     10930
     10925     10928     10929     10931     10926     10925     10928     10929
     10927     10925     10928     10929     10928     10929     10931     10932
     10928     10929     10931     10933     10928     10929     10931     10981
     10929     10931     10981     10982     10929     10931     10981     10983
     10929     10931     10981     10984     10930     10929     10931     10932
     10930     10929     10931     10933     10930     10929     10931     10981
     10931     10981     10984     10985     10931     10981     10984     10986
     10931     10981     10984     10987     10932     10931     10981     10982
     10932     10931     10981     10983     10932     10931     10981     10984
     10933     10931     10981     10982     10933     10931     10981     10983
     10933     10931     10981     10984     10934     10937     10940     10941
     10934     10937     10940     10942     10935     10934     10937     10938
     10935     10934     10937     10939     10935     10934     10937     10940
     10936     10934     10937     10938     10936     10934     10937     10939
     10936     10934     10937     10940     10937     10940     10942     10943
     10937     10940     10942     10944     10938     10937     10940     10941
     10938     10937     10940     10942     10939     10937     10940     10941
     10939     10937     10940     10942     10940     10942     10944     10945
     10940     10942     10944     10946     10940     10942     10944     10947
     10941     10940     10942     10943     10941     10940     10942     10944
     10942     10944     10947     10948     10942     10944     10947     10949
     10943     10942     10944     10945     10943     10942     10944     10946
     10943     10942     10944     10947     10944     10947     10949     10950
     10944     10947     10949     10951     10945     10944     10947     10948
     10945     10944     10947     10949     10946     10944     10947     10948
     10946     10944     10947     10949     10947     10949     10951     10952
     10947     10949     10951     10953     10947     10949     10951     10954
     10948     10947     10949     10950     10948     10947     10949     10951
     10949     10951     10954     10955     10949     10951     10954     10956
     10950     10949     10951     10952     10950     10949     10951     10953
     10950     10949     10951     10954     10951     10954     10956     10957
     10951     10954     10956     10958     10952     10951     10954     10955
     10952     10951     10954     10956     10953     10951     10954     10955
     10953     10951     10954     10956     10954     10956     10958     10959
     10954     10956     10958     10960     10954     10956     10958     10961
     10955     10954     10956     10957     10955     10954     10956     10958
     10956     10958     10961     10962     10956     10958     10961     10963
     10957     10956     10958     10959     10957     10956     10958     10960
     10957     10956     10958     10961     10958     10961     10963     10964
     10958     10961     10963     10965     10959     10958     10961     10962
     10959     10958     10961     10963     10960     10958     10961     10962
     10960     10958     10961     10963     10961     10963     10965     10966
     10961     10963     10965     10967     10961     10963     10965     10968
     10962     10961     10963     10964     10962     10961     10963     10965
     10963     10965     10968     10969     10963     10965     10968     10970
     10963     10965     10968     10971     10964     10963     10965     10966
     10964     10963     10965     10967     10964     10963     10965     10968
     10965     10968     10971     10972     10965     10968     10971     10973
     10965     10968     10971     10974     10966     10965     10968     10969
     10966     10965     10968     10970     10966     10965     10968     10971
     10967     10965     10968     10969     10967     10965     10968     10970
     10967     10965     10968     10971     10968     10971     10974     10975
     10968     10971     10974     10976     10968     10971     10974     10977
     10969     10968     10971     10972     10969     10968     10971     10973
     10969     10968     10971     10974     10970     10968     10971     10972
     10970     10968     10971     10973     10970     10968     10971     10974
     10971     10974     10977     10978     10971     10974     10977     10979
     10971     10974     10977     10980     10972     10971     10974     10975
     10972     10971     10974     10976     10972     10971     10974     10977
     10973     10971     10974     10975     10973     10971     10974     10976
     10973     10971     10974     10977     10975     10974     10977     10978
     10975     10974     10977     10979     10975     10974     10977     10980
     10976     10974     10977     10978     10976     10974     10977     10979
     10976     10974     10977     10980     10981     10984     10987     10988
     10981     10984     10987     10989     10981     10984     10987     10990
     10982     10981     10984     10985     10982     10981     10984     10986
     10982     10981     10984     10987     10983     10981     10984     10985
     10983     10981     10984     10986     10983     10981     10984     10987
     10984     10987     10990     10991     10984     10987     10990     10992
     10984     10987     10990     10993     10985     10984     10987     10988
     10985     10984     10987     10989     10985     10984     10987     10990
     10986     10984     10987     10988     10986     10984     10987     10989
     10986     10984     10987     10990     10987     10990     10993     10994
     10987     10990     10993     10995     10987     10990     10993     10996
     10988     10987     10990     10991     10988     10987     10990     10992
     10988     10987     10990     10993     10989     10987     10990     10991
     10989     10987     10990     10992     10989     10987     10990     10993
     10990     10993     10996     10997     10990     10993     10996     10998
     10990     10993     10996     10999     10991     10990     10993     10994
     10991     10990     10993     10995     10991     10990     10993     10996
     10992     10990     10993     10994     10992     10990     10993     10995
     10992     10990     10993     10996     10993     10996     10999     11000
     10993     10996     10999     11001     10993     10996     10999     11002
     10994     10993     10996     10997     10994     10993     10996     10998
     10994     10993     10996     10999     10995     10993     10996     10997
     10995     10993     10996     10998     10995     10993     10996     10999
     10996     10999     11002     11003     10996     10999     11002     11004
     10996     10999     11002     11005     10997     10996     10999     11000
     10997     10996     10999     11001     10997     10996     10999     11002
     10998     10996     10999     11000     10998     10996     10999     11001
     10998     10996     10999     11002     10999     11002     11005     11006
     10999     11002     11005     11007     10999     11002     11005     11008
     11000     10999     11002     11003     11000     10999     11002     11004
     11000     10999     11002     11005     11001     10999     11002     11003
     11001     10999     11002     11004     11001     10999     11002     11005
     11002     11005     11008     11009     11002     11005     11008     11010
     11002     11005     11008     11011     11003     11002     11005     11006
     11003     11002     11005     11007     11003     11002     11005     11008
     11004     11002     11005     11006     11004     11002     11005     11007
     11004     11002     11005     11008     11005     11008     11011     11012
     11005     11008     11011     11013     11005     11008     11011     11014
     11006     11005     11008     11009     11006     11005     11008     11010
     11006     11005     11008     11011     11007     11005     11008     11009
     11007     11005     11008     11010     11007     11005     11008     11011
     11008     11011     11014     11015     11008     11011     11014     11016
     11008     11011     11014     11017     11009     11008     11011     11012
     11009     11008     11011     11013     11009     11008     11011     11014
     11010     11008     11011     11012     11010     11008     11011     11013
     11010     11008     11011     11014     11011     11014     11017     11018
     11011     11014     11017     11019     11011     11014     11017     11020
     11012     11011     11014     11015     11012     11011     11014     11016
     11012     11011     11014     11017     11013     11011     11014     11015
     11013     11011     11014     11016     11013     11011     11014     11017
     11014     11017     11020     11021     11014     11017     11020     11022
     11014     11017     11020     11023     11015     11014     11017     11018
     11015     11014     11017     11019     11015     11014     11017     11020
     11016     11014     11017     11018     11016     11014     11017     11019
     11016     11014     11017     11020     11017     11020     11023     11024
     11017     11020     11023     11025     11017     11020     11023     11026
     11018     11017     11020     11021     11018     11017     11020     11022
     11018     11017     11020     11023     11019     11017     11020     11021
     11019     11017     11020     11022     11019     11017     11020     11023
     11020     11023     11026     11027     11020     11023     11026     11028
     11020     11023     11026     11029     11021     11020     11023     11024
     11021     11020     11023     11025     11021     11020     11023     11026
     11022     11020     11023     11024     11022     11020     11023     11025
     11022     11020     11023     11026     11024     11023     11026     11027
     11024     11023     11026     11028     11024     11023     11026     11029
     11025     11023     11026     11027     11025     11023     11026     11028
     11025     11023     11026     11029     11030     11034     11037     11038
     11030     11034     11037     11039     11030     11034     11037     11043
     11031     11030     11034     11035     11031     11030     11034     11036
     11031     11030     11034     11037     11032     11030     11034     11035
     11032     11030     11034     11036     11032     11030     11034     11037
     11033     11030     11034     11035     11033     11030     11034     11036
     11033     11030     11034     11037     11034     11037     11043     11040
     11035     11034     11037     11038     11035     11034     11037     11039
     11035     11034     11037     11043     11036     11034     11037     11038
     11036     11034     11037     11039     11036     11034     11037     11043
     11037     11043     11040     11041     11037     11043     11040     11042
     11037     11043     11040     11044     11038     11037     11043     11040
     11039     11037     11043     11040     11040     11044     11045     11046
     11040     11044     11045     11047     11040     11044     11045     11048
     11041     11040     11044     11045     11042     11040     11044     11045
     11043     11040     11044     11045     11044     11045     11048     11049
     11044     11045     11048     11050     11044     11045     11048     11056
     11045     11048     11050     11051     11045     11048     11056     11057
     11045     11048     11056     11058     11045     11048     11056     11059
     11046     11045     11048     11049     11046     11045     11048     11050
     11046     11045     11048     11056     11047     11045     11048     11049
     11047     11045     11048     11050     11047     11045     11048     11056
     11048     11050     11051     11052     11048     11050     11051     11053
     11048     11056     11059     11060     11049     11048     11050     11051
     11049     11048     11056     11057     11049     11048     11056     11058
     11049     11048     11056     11059     11050     11048     11056     11057
     11050     11048     11056     11058     11050     11048     11056     11059
     11050     11051     11053     11054     11050     11051     11053     11055
     11050     11051     11053     11065     11051     11050     11048     11056
     11051     11053     11065     11066     11051     11053     11065     11067
     11051     11053     11065     11068     11052     11051     11053     11054
     11052     11051     11053     11055     11052     11051     11053     11065
     11053     11065     11068     11069     11053     11065     11068     11070
     11053     11065     11068     11071     11054     11053     11065     11066
     11054     11053     11065     11067     11054     11053     11065     11068
     11055     11053     11065     11066     11055     11053     11065     11067
     11055     11053     11065     11068     11056     11059     11060     11061
     11056     11059     11060     11062     11057     11056     11059     11060
     11058     11056     11059     11060     11059     11060     11062     11063
     11059     11060     11062     11064     11059     11060     11062     11112
     11060     11062     11112     11113     11060     11062     11112     11114
     11060     11062     11112     11115     11061     11060     11062     11063
     11061     11060     11062     11064     11061     11060     11062     11112
     11062     11112     11115     11116     11062     11112     11115     11117
     11062     11112     11115     11118     11063     11062     11112     11113
     11063     11062     11112     11114     11063     11062     11112     11115
     11064     11062     11112     11113     11064     11062     11112     11114
     11064     11062     11112     11115     11065     11068     11071     11072
     11065     11068     11071     11073     11065     11068     11071     11074
     11066     11065     11068     11069     11066     11065     11068     11070
     11066     11065     11068     11071     11067     11065     11068     11069
     11067     11065     11068     11070     11067     11065     11068     11071
     11068     11071     11074     11075     11068     11071     11074     11076
     11068     11071     11074     11077     11069     11068     11071     11072
     11069     11068     11071     11073     11069     11068     11071     11074
     11070     11068     11071     11072     11070     11068     11071     11073
     11070     11068     11071     11074     11071     11074     11077     11078
     11071     11074     11077     11079     11071     11074     11077     11080
     11072     11071     11074     11075     11072     11071     11074     11076
     11072     11071     11074     11077     11073     11071     11074     11075
     11073     11071     11074     11076     11073     11071     11074     11077
     11074     11077     11080     11081     11074     11077     11080     11082
     11074     11077     11080     11083     11075     11074     11077     11078
     11075     11074     11077     11079     11075     11074     11077     11080
     11076     11074     11077     11078     11076     11074     11077     11079
     11076     11074     11077     11080     11077     11080     11083     11084
     11077     11080     11083     11085     11078     11077     11080     11081
     11078     11077     11080     11082     11078     11077     11080     11083
     11079     11077     11080     11081     11079     11077     11080     11082
     11079     11077     11080     11083     11080     11083     11085     11086
     11080     11083     11085     11087     11081     11080     11083     11084
     11081     11080     11083     11085     11082     11080     11083     11084
     11082     11080     11083     11085     11083     11085     11087     11088
     11083     11085     11087     11089     11083     11085     11087     11090
     11084     11083     11085     11086     11084     11083     11085     11087
     11085     11087     11090     11091     11085     11087     11090     11092
     11085     11087     11090     11093     11086     11085     11087     11088
     11086     11085     11087     11089     11086     11085     11087     11090
     11087     11090     11093     11094     11087     11090     11093     11095
     11087     11090     11093     11096     11088     11087     11090     11091
     11088     11087     11090     11092     11088     11087     11090     11093
     11089     11087     11090     11091     11089     11087     11090     11092
     11089     11087     11090     11093     11090     11093     11096     11097
     11090     11093     11096     11098     11090     11093     11096     11099
     11091     11090     11093     11094     11091     11090     11093     11095
     11091     11090     11093     11096     11092     11090     11093     11094
     11092     11090     11093     11095     11092     11090     11093     11096
     11093     11096     11099     11100     11093     11096     11099     11101
     11093     11096     11099     11102     11094     11093     11096     11097
     11094     11093     11096     11098     11094     11093     11096     11099
     11095     11093     11096     11097     11095     11093     11096     11098
     11095     11093     11096     11099     11096     11099     11102     11103
     11096     11099     11102     11104     11096     11099     11102     11105
     11097     11096     11099     11100     11097     11096     11099     11101
     11097     11096     11099     11102     11098     11096     11099     11100
     11098     11096     11099     11101     11098     11096     11099     11102
     11099     11102     11105     11106     11099     11102     11105     11107
     11099     11102     11105     11108     11100     11099     11102     11103
     11100     11099     11102     11104     11100     11099     11102     11105
     11101     11099     11102     11103     11101     11099     11102     11104
     11101     11099     11102     11105     11102     11105     11108     11109
     11102     11105     11108     11110     11102     11105     11108     11111
     11103     11102     11105     11106     11103     11102     11105     11107
     11103     11102     11105     11108     11104     11102     11105     11106
     11104     11102     11105     11107     11104     11102     11105     11108
     11106     11105     11108     11109     11106     11105     11108     11110
     11106     11105     11108     11111     11107     11105     11108     11109
     11107     11105     11108     11110     11107     11105     11108     11111
     11112     11115     11118     11119     11112     11115     11118     11120
     11112     11115     11118     11121     11113     11112     11115     11116
     11113     11112     11115     11117     11113     11112     11115     11118
     11114     11112     11115     11116     11114     11112     11115     11117
     11114     11112     11115     11118     11115     11118     11121     11122
     11115     11118     11121     11123     11115     11118     11121     11124
     11116     11115     11118     11119     11116     11115     11118     11120
     11116     11115     11118     11121     11117     11115     11118     11119
     11117     11115     11118     11120     11117     11115     11118     11121
     11118     11121     11124     11125     11118     11121     11124     11126
     11118     11121     11124     11127     11119     11118     11121     11122
     11119     11118     11121     11123     11119     11118     11121     11124
     11120     11118     11121     11122     11120     11118     11121     11123
     11120     11118     11121     11124     11121     11124     11127     11128
     11121     11124     11127     11129     11121     11124     11127     11130
     11122     11121     11124     11125     11122     11121     11124     11126
     11122     11121     11124     11127     11123     11121     11124     11125
     11123     11121     11124     11126     11123     11121     11124     11127
     11124     11127     11130     11131     11124     11127     11130     11132
     11124     11127     11130     11133     11125     11124     11127     11128
     11125     11124     11127     11129     11125     11124     11127     11130
     11126     11124     11127     11128     11126     11124     11127     11129
     11126     11124     11127     11130     11127     11130     11133     11134
     11127     11130     11133     11135     11127     11130     11133     11136
     11128     11127     11130     11131     11128     11127     11130     11132
     11128     11127     11130     11133     11129     11127     11130     11131
     11129     11127     11130     11132     11129     11127     11130     11133
     11130     11133     11136     11137     11130     11133     11136     11138
     11130     11133     11136     11139     11131     11130     11133     11134
     11131     11130     11133     11135     11131     11130     11133     11136
     11132     11130     11133     11134     11132     11130     11133     11135
     11132     11130     11133     11136     11133     11136     11139     11140
     11133     11136     11139     11141     11133     11136     11139     11142
     11134     11133     11136     11137     11134     11133     11136     11138
     11134     11133     11136     11139     11135     11133     11136     11137
     11135     11133     11136     11138     11135     11133     11136     11139
     11136     11139     11142     11143     11136     11139     11142     11144
     11136     11139     11142     11145     11137     11136     11139     11140
     11137     11136     11139     11141     11137     11136     11139     11142
     11138     11136     11139     11140     11138     11136     11139     11141
     11138     11136     11139     11142     11139     11142     11145     11146
     11139     11142     11145     11147     11139     11142     11145     11148
     11140     11139     11142     11143     11140     11139     11142     11144
     11140     11139     11142     11145     11141     11139     11142     11143
     11141     11139     11142     11144     11141     11139     11142     11145
     11142     11145     11148     11149     11142     11145     11148     11150
     11142     11145     11148     11151     11143     11142     11145     11146
     11143     11142     11145     11147     11143     11142     11145     11148
     11144     11142     11145     11146     11144     11142     11145     11147
     11144     11142     11145     11148     11145     11148     11151     11152
     11145     11148     11151     11153     11145     11148     11151     11154
     11146     11145     11148     11149     11146     11145     11148     11150
     11146     11145     11148     11151     11147     11145     11148     11149
     11147     11145     11148     11150     11147     11145     11148     11151
     11148     11151     11154     11155     11148     11151     11154     11156
     11148     11151     11154     11157     11149     11148     11151     11152
     11149     11148     11151     11153     11149     11148     11151     11154
     11150     11148     11151     11152     11150     11148     11151     11153
     11150     11148     11151     11154     11151     11154     11157     11158
     11151     11154     11157     11159     11151     11154     11157     11160
     11152     11151     11154     11155     11152     11151     11154     11156
     11152     11151     11154     11157     11153     11151     11154     11155
     11153     11151     11154     11156     11153     11151     11154     11157
     11155     11154     11157     11158     11155     11154     11157     11159
     11155     11154     11157     11160     11156     11154     11157     11158
     11156     11154     11157     11159     11156     11154     11157     11160
     11161     11165     11168     11169     11161     11165     11168     11199
     11161     11207     11204     11199     11161     11207     11204     11205
     11161     11207     11204     11206     11162     11161     11163     11164
     11162     11161     11165     11166     11162     11161     11165     11167
     11162     11161     11165     11168     11162     11161     11207     11204
     11162     11161     11207     11208     11162     11161     11207     11209
     11163     11161     11165     11166     11163     11161     11165     11167
     11163     11161     11165     11168     11163     11161     11207     11204
     11163     11161     11207     11208     11163     11161     11207     11209
     11164     11163     11161     11165     11164     11163     11161     11207
     11165     11161     11207     11204     11165     11161     11207     11208
     11165     11161     11207     11209     11165     11168     11169     11170
     11165     11168     11169     11171     11165     11168     11199     11197
     11165     11168     11199     11200     11165     11168     11199     11204
     11166     11165     11161     11207     11166     11165     11168     11169
     11166     11165     11168     11199     11167     11165     11161     11207
     11167     11165     11168     11169     11167     11165     11168     11199
     11168     11165     11161     11207     11168     11169     11171     11172
     11168     11169     11171     11173     11168     11169     11171     11174
     11168     11199     11197     11174     11168     11199     11197     11194
     11168     11199     11197     11198     11168     11199     11200     11201
     11168     11199     11200     11202     11168     11199     11200     11203
     11168     11199     11204     11205     11168     11199     11204     11206
     11168     11199     11204     11207     11169     11168     11199     11197
     11169     11168     11199     11200     11169     11168     11199     11204
     11169     11171     11174     11175     11169     11171     11174     11176
     11169     11171     11174     11197     11170     11169     11168     11199
     11170     11169     11171     11172     11170     11169     11171     11173
     11170     11169     11171     11174     11171     11169     11168     11199
     11171     11174     11176     11177     11171     11174     11176     11178
     11171     11174     11176     11186     11171     11174     11197     11194
     11171     11174     11197     11198     11171     11174     11197     11199
     11172     11171     11174     11175     11172     11171     11174     11176
     11172     11171     11174     11197     11173     11171     11174     11175
     11173     11171     11174     11176     11173     11171     11174     11197
     11174     11176     11178     11179     11174     11176     11178     11180
     11174     11176     11178     11181     11174     11176     11186     11184
     11174     11176     11186     11187     11174     11176     11186     11191
     11174     11197     11194     11191     11174     11197     11194     11195
     11174     11197     11194     11196     11174     11197     11199     11200
     11174     11197     11199     11204     11175     11174     11176     11177
     11175     11174     11176     11178     11175     11174     11176     11186
     11175     11174     11197     11194     11175     11174     11197     11198
     11175     11174     11197     11199     11176     11174     11197     11194
     11176     11174     11197     11198     11176     11174     11197     11199
     11176     11178     11181     11182     11176     11178     11181     11183
     11176     11178     11181     11184     11176     11186     11184     11181
     11176     11186     11184     11185     11176     11186     11184     11210
     11176     11186     11187     11188     11176     11186     11187     11189
     11176     11186     11187     11190     11176     11186     11191     11192
     11176     11186     11191     11193     11176     11186     11191     11194
     11177     11176     11174     11197     11177     11176     11178     11179
     11177     11176     11178     11180     11177     11176     11178     11181
     11177     11176     11186     11184     11177     11176     11186     11187
     11177     11176     11186     11191     11178     11176     11174     11197
     11178     11176     11186     11184     11178     11176     11186     11187
     11178     11176     11186     11191     11178     11181     11184     11185
     11178     11181     11184     11186     11178     11181     11184     11210
     11179     11178     11176     11186     11179     11178     11181     11182
     11179     11178     11181     11183     11179     11178     11181     11184
     11180     11178     11176     11186     11180     11178     11181     11182
     11180     11178     11181     11183     11180     11178     11181     11184
     11181     11178     11176     11186     11181     11184     11186     11187
     11181     11184     11186     11191     11181     11184     11210     11211
     11181     11184     11210     11212     11181     11184     11210     11216
     11182     11181     11184     11185     11182     11181     11184     11186
     11182     11181     11184     11210     11183     11181     11184     11185
     11183     11181     11184     11186     11183     11181     11184     11210
     11184     11186     11187     11188     11184     11186     11187     11189
     11184     11186     11187     11190     11184     11186     11191     11192
     11184     11186     11191     11193     11184     11186     11191     11194
     11184     11210     11212     11213     11184     11210     11212     11214
     11184     11210     11212     11215     11184     11210     11216     11217
     11184     11210     11216     11218     11184     11210     11216     11219
     11185     11184     11186     11187     11185     11184     11186     11191
     11185     11184     11210     11211     11185     11184     11210     11212
     11185     11184     11210     11216     11186     11176     11174     11197
     11186     11184     11210     11211     11186     11184     11210     11212
     11186     11184     11210     11216     11186     11191     11194     11195
     11186     11191     11194     11196     11186     11191     11194     11197
     11187     11186     11184     11210     11187     11186     11191     11192
     11187     11186     11191     11193     11187     11186     11191     11194
     11188     11187     11186     11191     11189     11187     11186     11191
     11190     11187     11186     11191     11191     11186     11184     11210
     11191     11194     11197     11198     11191     11194     11197     11199
     11192     11191     11194     11195     11192     11191     11194     11196
     11192     11191     11194     11197     11193     11191     11194     11195
     11193     11191     11194     11196     11193     11191     11194     11197
     11194     11197     11199     11200     11194     11197     11199     11204
     11195     11194     11197     11198     11195     11194     11197     11199
     11196     11194     11197     11198     11196     11194     11197     11199
     11197     11199     11200     11201     11197     11199     11200     11202
     11197     11199     11200     11203     11197     11199     11204     11205
     11197     11199     11204     11206     11197     11199     11204     11207
     11198     11197     11199     11200     11198     11197     11199     11204
     11199     11204     11207     11208     11199     11204     11207     11209
     11200     11199     11204     11205     11200     11199     11204     11206
     11200     11199     11204     11207     11201     11200     11199     11204
     11202     11200     11199     11204     11203     11200     11199     11204
     11205     11204     11207     11208     11205     11204     11207     11209
     11206     11204     11207     11208     11206     11204     11207     11209
     11210     11216     11219     11220     11210     11216     11219     11221
     11210     11216     11219     11222     11211     11210     11212     11213
     11211     11210     11212     11214     11211     11210     11212     11215
     11211     11210     11216     11217     11211     11210     11216     11218
     11211     11210     11216     11219     11212     11210     11216     11217
     11212     11210     11216     11218     11212     11210     11216     11219
     11213     11212     11210     11216     11214     11212     11210     11216
     11215     11212     11210     11216     11216     11219     11222     11223
     11216     11219     11222     11224     11216     11219     11222     11225
     11217     11216     11219     11220     11217     11216     11219     11221
     11217     11216     11219     11222     11218     11216     11219     11220
     11218     11216     11219     11221     11218     11216     11219     11222
     11219     11222     11225     11226     11219     11222     11225     11227
     11219     11222     11225     11231     11220     11219     11222     11223
     11220     11219     11222     11224     11220     11219     11222     11225
     11221     11219     11222     11223     11221     11219     11222     11224
     11221     11219     11222     11225     11222     11225     11227     11228
     11222     11225     11227     11229     11222     11225     11227     11230
     11222     11225     11231     11232     11222     11225     11231     11233
     11222     11225     11231     11234     11223     11222     11225     11226
     11223     11222     11225     11227     11223     11222     11225     11231
     11224     11222     11225     11226     11224     11222     11225     11227
     11224     11222     11225     11231     11226     11225     11227     11228
     11226     11225     11227     11229     11226     11225     11227     11230
     11226     11225     11231     11232     11226     11225     11231     11233
     11226     11225     11231     11234     11227     11225     11231     11232
     11227     11225     11231     11233     11227     11225     11231     11234
     11228     11227     11225     11231     11229     11227     11225     11231
     11230     11227     11225     11231     11235     11239     11242     11243
     11235     11239     11242     11273     11235     11281     11278     11273
     11235     11281     11278     11279     11235     11281     11278     11280
     11236     11235     11237     11238     11236     11235     11239     11240
     11236     11235     11239     11241     11236     11235     11239     11242
     11236     11235     11281     11278     11236     11235     11281     11282
     11236     11235     11281     11283     11237     11235     11239     11240
     11237     11235     11239     11241     11237     11235     11239     11242
     11237     11235     11281     11278     11237     11235     11281     11282
     11237     11235     11281     11283     11238     11237     11235     11239
     11238     11237     11235     11281     11239     11235     11281     11278
     11239     11235     11281     11282     11239     11235     11281     11283
     11239     11242     11243     11244     11239     11242     11243     11245
     11239     11242     11273     11271     11239     11242     11273     11274
     11239     11242     11273     11278     11240     11239     11235     11281
     11240     11239     11242     11243     11240     11239     11242     11273
     11241     11239     11235     11281     11241     11239     11242     11243
     11241     11239     11242     11273     11242     11239     11235     11281
     11242     11243     11245     11246     11242     11243     11245     11247
     11242     11243     11245     11248     11242     11273     11271     11248
     11242     11273     11271     11268     11242     11273     11271     11272
     11242     11273     11274     11275     11242     11273     11274     11276
     11242     11273     11274     11277     11242     11273     11278     11279
     11242     11273     11278     11280     11242     11273     11278     11281
     11243     11242     11273     11271     11243     11242     11273     11274
     11243     11242     11273     11278     11243     11245     11248     11249
     11243     11245     11248     11250     11243     11245     11248     11271
     11244     11243     11242     11273     11244     11243     11245     11246
     11244     11243     11245     11247     11244     11243     11245     11248
     11245     11243     11242     11273     11245     11248     11250     11251
     11245     11248     11250     11252     11245     11248     11250     11260
     11245     11248     11271     11268     11245     11248     11271     11272
     11245     11248     11271     11273     11246     11245     11248     11249
     11246     11245     11248     11250     11246     11245     11248     11271
     11247     11245     11248     11249     11247     11245     11248     11250
     11247     11245     11248     11271     11248     11250     11252     11253
     11248     11250     11252     11254     11248     11250     11252     11255
     11248     11250     11260     11258     11248     11250     11260     11261
     11248     11250     11260     11265     11248     11271     11268     11265
     11248     11271     11268     11269     11248     11271     11268     11270
     11248     11271     11273     11274     11248     11271     11273     11278
     11249     11248     11250     11251     11249     11248     11250     11252
     11249     11248     11250     11260     11249     11248     11271     11268
     11249     11248     11271     11272     11249     11248     11271     11273
     11250     11248     11271     11268     11250     11248     11271     11272
     11250     11248     11271     11273     11250     11252     11255     11256
     11250     11252     11255     11257     11250     11252     11255     11258
     11250     11260     11258     11255     11250     11260     11258     11259
     11250     11260     11258     11284     11250     11260     11261     11262
     11250     11260     11261     11263     11250     11260     11261     11264
     11250     11260     11265     11266     11250     11260     11265     11267
     11250     11260     11265     11268     11251     11250     11248     11271
     11251     11250     11252     11253     11251     11250     11252     11254
     11251     11250     11252     11255     11251     11250     11260     11258
     11251     11250     11260     11261     11251     11250     11260     11265
     11252     11250     11248     11271     11252     11250     11260     11258
     11252     11250     11260     11261     11252     11250     11260     11265
     11252     11255     11258     11259     11252     11255     11258     11260
     11252     11255     11258     11284     11253     11252     11250     11260
     11253     11252     11255     11256     11253     11252     11255     11257
     11253     11252     11255     11258     11254     11252     11250     11260
     11254     11252     11255     11256     11254     11252     11255     11257
     11254     11252     11255     11258     11255     11252     11250     11260
     11255     11258     11260     11261     11255     11258     11260     11265
     11255     11258     11284     11285     11255     11258     11284     11286
     11255     11258     11284     11290     11256     11255     11258     11259
     11256     11255     11258     11260     11256     11255     11258     11284
     11257     11255     11258     11259     11257     11255     11258     11260
     11257     11255     11258     11284     11258     11260     11261     11262
     11258     11260     11261     11263     11258     11260     11261     11264
     11258     11260     11265     11266     11258     11260     11265     11267
     11258     11260     11265     11268     11258     11284     11286     11287
     11258     11284     11286     11288     11258     11284     11286     11289
     11258     11284     11290     11291     11258     11284     11290     11292
     11258     11284     11290     11293     11259     11258     11260     11261
     11259     11258     11260     11265     11259     11258     11284     11285
     11259     11258     11284     11286     11259     11258     11284     11290
     11260     11250     11248     11271     11260     11258     11284     11285
     11260     11258     11284     11286     11260     11258     11284     11290
     11260     11265     11268     11269     11260     11265     11268     11270
     11260     11265     11268     11271     11261     11260     11258     11284
     11261     11260     11265     11266     11261     11260     11265     11267
     11261     11260     11265     11268     11262     11261     11260     11265
     11263     11261     11260     11265     11264     11261     11260     11265
     11265     11260     11258     11284     11265     11268     11271     11272
     11265     11268     11271     11273     11266     11265     11268     11269
     11266     11265     11268     11270     11266     11265     11268     11271
     11267     11265     11268     11269     11267     11265     11268     11270
     11267     11265     11268     11271     11268     11271     11273     11274
     11268     11271     11273     11278     11269     11268     11271     11272
     11269     11268     11271     11273     11270     11268     11271     11272
     11270     11268     11271     11273     11271     11273     11274     11275
     11271     11273     11274     11276     11271     11273     11274     11277
     11271     11273     11278     11279     11271     11273     11278     11280
     11271     11273     11278     11281     11272     11271     11273     11274
     11272     11271     11273     11278     11273     11278     11281     11282
     11273     11278     11281     11283     11274     11273     11278     11279
     11274     11273     11278     11280     11274     11273     11278     11281
     11275     11274     11273     11278     11276     11274     11273     11278
     11277     11274     11273     11278     11279     11278     11281     11282
     11279     11278     11281     11283     11280     11278     11281     11282
     11280     11278     11281     11283     11284     11290     11293     11294
     11284     11290     11293     11295     11284     11290     11293     11296
     11285     11284     11286     11287     11285     11284     11286     11288
     11285     11284     11286     11289     11285     11284     11290     11291
     11285     11284     11290     11292     11285     11284     11290     11293
     11286     11284     11290     11291     11286     11284     11290     11292
     11286     11284     11290     11293     11287     11286     11284     11290
     11288     11286     11284     11290     11289     11286     11284     11290
     11290     11293     11296     11297     11290     11293     11296     11298
     11290     11293     11296     11299     11291     11290     11293     11294
     11291     11290     11293     11295     11291     11290     11293     11296
     11292     11290     11293     11294     11292     11290     11293     11295
     11292     11290     11293     11296     11293     11296     11299     11300
     11293     11296     11299     11301     11293     11296     11299     11305
     11294     11293     11296     11297     11294     11293     11296     11298
     11294     11293     11296     11299     11295     11293     11296     11297
     11295     11293     11296     11298     11295     11293     11296     11299
     11296     11299     11301     11302     11296     11299     11301     11303
     11296     11299     11301     11304     11296     11299     11305     11306
     11296     11299     11305     11307     11296     11299     11305     11308
     11297     11296     11299     11300     11297     11296     11299     11301
     11297     11296     11299     11305     11298     11296     11299     11300
     11298     11296     11299     11301     11298     11296     11299     11305
     11300     11299     11301     11302     11300     11299     11301     11303
     11300     11299     11301     11304     11300     11299     11305     11306
     11300     11299     11305     11307     11300     11299     11305     11308
     11301     11299     11305     11306     11301     11299     11305     11307
     11301     11299     11305     11308     11302     11301     11299     11305
     11303     11301     11299     11305     11304     11301     11299     11305
     11309     11322     11325     11326     11309     11322     11325     11327
     11309     11322     11325     11332     11310     11309     11314     11315
     11310     11309     11314     11316     11310     11309     11314     11317
     11310     11309     11318     11319     11310     11309     11318     11320
     11310     11309     11318     11321     11310     11309     11322     11323
     11310     11309     11322     11324     11310     11309     11322     11325
     11311     11310     11309     11314     11311     11310     11309     11318
     11311     11310     11309     11322     11312     11310     11309     11314
     11312     11310     11309     11318     11312     11310     11309     11322
     11313     11310     11309     11314     11313     11310     11309     11318
     11313     11310     11309     11322     11314     11309     11318     11319
     11314     11309     11318     11320     11314     11309     11318     11321
     11314     11309     11322     11323     11314     11309     11322     11324
     11314     11309     11322     11325     11315     11314     11309     11318
     11315     11314     11309     11322     11316     11314     11309     11318
     11316     11314     11309     11322     11317     11314     11309     11318
     11317     11314     11309     11322     11318     11309     11322     11323
     11318     11309     11322     11324     11318     11309     11322     11325
     11319     11318     11309     11322     11320     11318     11309     11322
     11321     11318     11309     11322     11322     11325     11332     11328
     11323     11322     11325     11326     11323     11322     11325     11327
     11323     11322     11325     11332     11324     11322     11325     11326
     11324     11322     11325     11327     11324     11322     11325     11332
     11325     11332     11328     11329     11325     11332     11328     11330
     11325     11332     11328     11331     11326     11325     11332     11328
     11327     11325     11332     11328     11328     11331     11333     11334
     11328     11331     11333     11335     11328     11331     11333     11338
     11329     11328     11331     11333     11330     11328     11331     11333
     11331     11333     11338     11336     11331     11333     11338     11339
     11331     11333     11338     11340     11332     11328     11331     11333
     11333     11338     11336     11337     11333     11338     11336     11388
     11333     11338     11340     11341     11333     11338     11340     11342
     11333     11338     11340     11344     11334     11333     11338     11336
     11334     11333     11338     11339     11334     11333     11338     11340
     11335     11333     11338     11336     11335     11333     11338     11339
     11335     11333     11338     11340     11336     11338     11340     11341
     11336     11338     11340     11342     11336     11338     11340     11344
     11336     11388     11390     11391     11336     11388     11390     11392
     11336     11388     11390     11393     11337     11336     11338     11339
     11337     11336     11338     11340     11337     11336     11388     11389
     11337     11336     11388     11390     11338     11336     11388     11389
     11338     11336     11388     11390     11338     11340     11342     11343
     11338     11340     11344     11345     11338     11340     11344     11346
     11339     11338     11336     11388     11339     11338     11340     11341
     11339     11338     11340     11342     11339     11338     11340     11344
     11340     11338     11336     11388     11340     11344     11346     11347
     11340     11344     11346     11348     11341     11340     11342     11343
     11341     11340     11344     11345     11341     11340     11344     11346
     11342     11340     11344     11345     11342     11340     11344     11346
     11343     11342     11340     11344     11344     11346     11348     11349
     11344     11346     11348     11350     11344     11346     11348     11351
     11345     11344     11346     11347     11345     11344     11346     11348
     11346     11348     11351     11352     11346     11348     11351     11353
     11346     11348     11351     11354     11347     11346     11348     11349
     11347     11346     11348     11350     11347     11346     11348     11351
     11348     11351     11354     11355     11348     11351     11354     11356
     11348     11351     11354     11357     11349     11348     11351     11352
     11349     11348     11351     11353     11349     11348     11351     11354
     11350     11348     11351     11352     11350     11348     11351     11353
     11350     11348     11351     11354     11351     11354     11357     11358
     11351     11354     11357     11359     11351     11354     11357     11360
     11352     11351     11354     11355     11352     11351     11354     11356
     11352     11351     11354     11357     11353     11351     11354     11355
     11353     11351     11354     11356     11353     11351     11354     11357
     11354     11357     11360     11361     11354     11357     11360     11362
     11354     11357     11360     11363     11355     11354     11357     11358
     11355     11354     11357     11359     11355     11354     11357     11360
     11356     11354     11357     11358     11356     11354     11357     11359
     11356     11354     11357     11360     11357     11360     11363     11364
     11357     11360     11363     11365     11357     11360     11363     11366
     11358     11357     11360     11361     11358     11357     11360     11362
     11358     11357     11360     11363     11359     11357     11360     11361
     11359     11357     11360     11362     11359     11357     11360     11363
     11360     11363     11366     11367     11360     11363     11366     11368
     11360     11363     11366     11369     11361     11360     11363     11364
     11361     11360     11363     11365     11361     11360     11363     11366
     11362     11360     11363     11364     11362     11360     11363     11365
     11362     11360     11363     11366     11363     11366     11369     11370
     11363     11366     11369     11371     11363     11366     11369     11372
     11364     11363     11366     11367     11364     11363     11366     11368
     11364     11363     11366     11369     11365     11363     11366     11367
     11365     11363     11366     11368     11365     11363     11366     11369
     11366     11369     11372     11373     11366     11369     11372     11374
     11366     11369     11372     11375     11367     11366     11369     11370
     11367     11366     11369     11371     11367     11366     11369     11372
     11368     11366     11369     11370     11368     11366     11369     11371
     11368     11366     11369     11372     11369     11372     11375     11376
     11369     11372     11375     11377     11369     11372     11375     11378
     11370     11369     11372     11373     11370     11369     11372     11374
     11370     11369     11372     11375     11371     11369     11372     11373
     11371     11369     11372     11374     11371     11369     11372     11375
     11372     11375     11378     11379     11372     11375     11378     11380
     11372     11375     11378     11381     11373     11372     11375     11376
     11373     11372     11375     11377     11373     11372     11375     11378
     11374     11372     11375     11376     11374     11372     11375     11377
     11374     11372     11375     11378     11375     11378     11381     11382
     11375     11378     11381     11383     11375     11378     11381     11384
     11376     11375     11378     11379     11376     11375     11378     11380
     11376     11375     11378     11381     11377     11375     11378     11379
     11377     11375     11378     11380     11377     11375     11378     11381
     11378     11381     11384     11385     11378     11381     11384     11386
     11378     11381     11384     11387     11379     11378     11381     11382
     11379     11378     11381     11383     11379     11378     11381     11384
     11380     11378     11381     11382     11380     11378     11381     11383
     11380     11378     11381     11384     11382     11381     11384     11385
     11382     11381     11384     11386     11382     11381     11384     11387
     11383     11381     11384     11385     11383     11381     11384     11386
     11383     11381     11384     11387     11388     11390     11393     11394
     11388     11390     11393     11395     11388     11390     11393     11396
     11389     11388     11390     11391     11389     11388     11390     11392
     11389     11388     11390     11393     11390     11393     11396     11397
     11390     11393     11396     11398     11390     11393     11396     11399
     11391     11390     11393     11394     11391     11390     11393     11395
     11391     11390     11393     11396     11392     11390     11393     11394
     11392     11390     11393     11395     11392     11390     11393     11396
     11393     11396     11399     11400     11393     11396     11399     11401
     11393     11396     11399     11402     11394     11393     11396     11397
     11394     11393     11396     11398     11394     11393     11396     11399
     11395     11393     11396     11397     11395     11393     11396     11398
     11395     11393     11396     11399     11396     11399     11402     11403
     11396     11399     11402     11404     11396     11399     11402     11405
     11397     11396     11399     11400     11397     11396     11399     11401
     11397     11396     11399     11402     11398     11396     11399     11400
     11398     11396     11399     11401     11398     11396     11399     11402
     11399     11402     11405     11406     11399     11402     11405     11407
     11399     11402     11405     11408     11400     11399     11402     11403
     11400     11399     11402     11404     11400     11399     11402     11405
     11401     11399     11402     11403     11401     11399     11402     11404
     11401     11399     11402     11405     11402     11405     11408     11409
     11402     11405     11408     11410     11402     11405     11408     11411
     11403     11402     11405     11406     11403     11402     11405     11407
     11403     11402     11405     11408     11404     11402     11405     11406
     11404     11402     11405     11407     11404     11402     11405     11408
     11405     11408     11411     11412     11405     11408     11411     11413
     11406     11405     11408     11409     11406     11405     11408     11410
     11406     11405     11408     11411     11407     11405     11408     11409
     11407     11405     11408     11410     11407     11405     11408     11411
     11408     11411     11413     11414     11408     11411     11413     11415
     11409     11408     11411     11412     11409     11408     11411     11413
     11410     11408     11411     11412     11410     11408     11411     11413
     11411     11413     11415     11416     11411     11413     11415     11417
     11411     11413     11415     11418     11412     11411     11413     11414
     11412     11411     11413     11415     11413     11415     11418     11419
     11413     11415     11418     11420     11413     11415     11418     11421
     11414     11413     11415     11416     11414     11413     11415     11417
     11414     11413     11415     11418     11415     11418     11421     11422
     11415     11418     11421     11423     11415     11418     11421     11424
     11416     11415     11418     11419     11416     11415     11418     11420
     11416     11415     11418     11421     11417     11415     11418     11419
     11417     11415     11418     11420     11417     11415     11418     11421
     11418     11421     11424     11425     11418     11421     11424     11426
     11418     11421     11424     11427     11419     11418     11421     11422
     11419     11418     11421     11423     11419     11418     11421     11424
     11420     11418     11421     11422     11420     11418     11421     11423
     11420     11418     11421     11424     11421     11424     11427     11428
     11421     11424     11427     11429     11421     11424     11427     11430
     11422     11421     11424     11425     11422     11421     11424     11426
     11422     11421     11424     11427     11423     11421     11424     11425
     11423     11421     11424     11426     11423     11421     11424     11427
     11424     11427     11430     11431     11424     11427     11430     11432
     11424     11427     11430     11433     11425     11424     11427     11428
     11425     11424     11427     11429     11425     11424     11427     11430
     11426     11424     11427     11428     11426     11424     11427     11429
     11426     11424     11427     11430     11427     11430     11433     11434
     11427     11430     11433     11435     11427     11430     11433     11436
     11428     11427     11430     11431     11428     11427     11430     11432
     11428     11427     11430     11433     11429     11427     11430     11431
     11429     11427     11430     11432     11429     11427     11430     11433
     11430     11433     11436     11437     11430     11433     11436     11438
     11430     11433     11436     11439     11431     11430     11433     11434
     11431     11430     11433     11435     11431     11430     11433     11436
     11432     11430     11433     11434     11432     11430     11433     11435
     11432     11430     11433     11436     11434     11433     11436     11437
     11434     11433     11436     11438     11434     11433     11436     11439
     11435     11433     11436     11437     11435     11433     11436     11438
     11435     11433     11436     11439     11440     11453     11456     11457
     11440     11453     11456     11458     11440     11453     11456     11462
     11441     11440     11445     11446     11441     11440     11445     11447
     11441     11440     11445     11448     11441     11440     11449     11450
     11441     11440     11449     11451     11441     11440     11449     11452
     11441     11440     11453     11454     11441     11440     11453     11455
     11441     11440     11453     11456     11442     11441     11440     11445
     11442     11441     11440     11449     11442     11441     11440     11453
     11443     11441     11440     11445     11443     11441     11440     11449
     11443     11441     11440     11453     11444     11441     11440     11445
     11444     11441     11440     11449     11444     11441     11440     11453
     11445     11440     11449     11450     11445     11440     11449     11451
     11445     11440     11449     11452     11445     11440     11453     11454
     11445     11440     11453     11455     11445     11440     11453     11456
     11446     11445     11440     11449     11446     11445     11440     11453
     11447     11445     11440     11449     11447     11445     11440     11453
     11448     11445     11440     11449     11448     11445     11440     11453
     11449     11440     11453     11454     11449     11440     11453     11455
     11449     11440     11453     11456     11450     11449     11440     11453
     11451     11449     11440     11453     11452     11449     11440     11453
     11453     11456     11462     11459     11454     11453     11456     11457
     11454     11453     11456     11458     11454     11453     11456     11462
     11455     11453     11456     11457     11455     11453     11456     11458
     11455     11453     11456     11462     11456     11462     11459     11460
     11456     11462     11459     11461     11456     11462     11459     11463
     11457     11456     11462     11459     11458     11456     11462     11459
     11459     11463     11464     11465     11459     11463     11464     11466
     11459     11463     11464     11467     11460     11459     11463     11464
     11461     11459     11463     11464     11462     11459     11463     11464
     11463     11464     11467     11468     11463     11464     11467     11469
     11463     11464     11467     11475     11464     11467     11469     11470
     11464     11467     11475     11476     11464     11467     11475     11477
     11464     11467     11475     11478     11465     11464     11467     11468
     11465     11464     11467     11469     11465     11464     11467     11475
     11466     11464     11467     11468     11466     11464     11467     11469
     11466     11464     11467     11475     11467     11469     11470     11471
     11467     11469     11470     11472     11467     11475     11478     11479
     11468     11467     11469     11470     11468     11467     11475     11476
     11468     11467     11475     11477     11468     11467     11475     11478
     11469     11467     11475     11476     11469     11467     11475     11477
     11469     11467     11475     11478     11469     11470     11472     11473
     11469     11470     11472     11474     11469     11470     11472     11484
     11470     11469     11467     11475     11470     11472     11484     11485
     11470     11472     11484     11486     11470     11472     11484     11487
     11471     11470     11472     11473     11471     11470     11472     11474
     11471     11470     11472     11484     11472     11484     11487     11488
     11472     11484     11487     11489     11472     11484     11487     11490
     11473     11472     11484     11485     11473     11472     11484     11486
     11473     11472     11484     11487     11474     11472     11484     11485
     11474     11472     11484     11486     11474     11472     11484     11487
     11475     11478     11479     11480     11475     11478     11479     11481
     11476     11475     11478     11479     11477     11475     11478     11479
     11478     11479     11481     11482     11478     11479     11481     11483
     11478     11479     11481     11529     11479     11481     11529     11530
     11479     11481     11529     11531     11479     11481     11529     11532
     11480     11479     11481     11482     11480     11479     11481     11483
     11480     11479     11481     11529     11481     11529     11532     11533
     11481     11529     11532     11534     11481     11529     11532     11535
     11482     11481     11529     11530     11482     11481     11529     11531
     11482     11481     11529     11532     11483     11481     11529     11530
     11483     11481     11529     11531     11483     11481     11529     11532
     11484     11487     11490     11491     11484     11487     11490     11492
     11484     11487     11490     11493     11485     11484     11487     11488
     11485     11484     11487     11489     11485     11484     11487     11490
     11486     11484     11487     11488     11486     11484     11487     11489
     11486     11484     11487     11490     11487     11490     11493     11494
     11487     11490     11493     11495     11487     11490     11493     11496
     11488     11487     11490     11491     11488     11487     11490     11492
     11488     11487     11490     11493     11489     11487     11490     11491
     11489     11487     11490     11492     11489     11487     11490     11493
     11490     11493     11496     11497     11490     11493     11496     11498
     11490     11493     11496     11499     11491     11490     11493     11494
     11491     11490     11493     11495     11491     11490     11493     11496
     11492     11490     11493     11494     11492     11490     11493     11495
     11492     11490     11493     11496     11493     11496     11499     11500
     11493     11496     11499     11501     11493     11496     11499     11502
     11494     11493     11496     11497     11494     11493     11496     11498
     11494     11493     11496     11499     11495     11493     11496     11497
     11495     11493     11496     11498     11495     11493     11496     11499
     11496     11499     11502     11503     11496     11499     11502     11504
     11497     11496     11499     11500     11497     11496     11499     11501
     11497     11496     11499     11502     11498     11496     11499     11500
     11498     11496     11499     11501     11498     11496     11499     11502
     11499     11502     11504     11505     11499     11502     11504     11506
     11500     11499     11502     11503     11500     11499     11502     11504
     11501     11499     11502     11503     11501     11499     11502     11504
     11502     11504     11506     11507     11502     11504     11506     11508
     11502     11504     11506     11509     11503     11502     11504     11505
     11503     11502     11504     11506     11504     11506     11509     11510
     11504     11506     11509     11511     11505     11504     11506     11507
     11505     11504     11506     11508     11505     11504     11506     11509
     11506     11509     11511     11512     11506     11509     11511     11513
     11507     11506     11509     11510     11507     11506     11509     11511
     11508     11506     11509     11510     11508     11506     11509     11511
     11509     11511     11513     11514     11509     11511     11513     11515
     11509     11511     11513     11516     11510     11509     11511     11512
     11510     11509     11511     11513     11511     11513     11516     11517
     11511     11513     11516     11518     11511     11513     11516     11519
     11512     11511     11513     11514     11512     11511     11513     11515
     11512     11511     11513     11516     11513     11516     11519     11520
     11513     11516     11519     11521     11513     11516     11519     11522
     11514     11513     11516     11517     11514     11513     11516     11518
     11514     11513     11516     11519     11515     11513     11516     11517
     11515     11513     11516     11518     11515     11513     11516     11519
     11516     11519     11522     11523     11516     11519     11522     11524
     11516     11519     11522     11525     11517     11516     11519     11520
     11517     11516     11519     11521     11517     11516     11519     11522
     11518     11516     11519     11520     11518     11516     11519     11521
     11518     11516     11519     11522     11519     11522     11525     11526
     11519     11522     11525     11527     11519     11522     11525     11528
     11520     11519     11522     11523     11520     11519     11522     11524
     11520     11519     11522     11525     11521     11519     11522     11523
     11521     11519     11522     11524     11521     11519     11522     11525
     11523     11522     11525     11526     11523     11522     11525     11527
     11523     11522     11525     11528     11524     11522     11525     11526
     11524     11522     11525     11527     11524     11522     11525     11528
     11529     11532     11535     11536     11529     11532     11535     11537
     11529     11532     11535     11538     11530     11529     11532     11533
     11530     11529     11532     11534     11530     11529     11532     11535
     11531     11529     11532     11533     11531     11529     11532     11534
     11531     11529     11532     11535     11532     11535     11538     11539
     11532     11535     11538     11540     11532     11535     11538     11541
     11533     11532     11535     11536     11533     11532     11535     11537
     11533     11532     11535     11538     11534     11532     11535     11536
     11534     11532     11535     11537     11534     11532     11535     11538
     11535     11538     11541     11542     11535     11538     11541     11543
     11535     11538     11541     11544     11536     11535     11538     11539
     11536     11535     11538     11540     11536     11535     11538     11541
     11537     11535     11538     11539     11537     11535     11538     11540
     11537     11535     11538     11541     11538     11541     11544     11545
     11538     11541     11544     11546     11538     11541     11544     11547
     11539     11538     11541     11542     11539     11538     11541     11543
     11539     11538     11541     11544     11540     11538     11541     11542
     11540     11538     11541     11543     11540     11538     11541     11544
     11541     11544     11547     11548     11541     11544     11547     11549
     11541     11544     11547     11550     11542     11541     11544     11545
     11542     11541     11544     11546     11542     11541     11544     11547
     11543     11541     11544     11545     11543     11541     11544     11546
     11543     11541     11544     11547     11544     11547     11550     11551
     11544     11547     11550     11552     11544     11547     11550     11553
     11545     11544     11547     11548     11545     11544     11547     11549
     11545     11544     11547     11550     11546     11544     11547     11548
     11546     11544     11547     11549     11546     11544     11547     11550
     11547     11550     11553     11554     11547     11550     11553     11555
     11547     11550     11553     11556     11548     11547     11550     11551
     11548     11547     11550     11552     11548     11547     11550     11553
     11549     11547     11550     11551     11549     11547     11550     11552
     11549     11547     11550     11553     11550     11553     11556     11557
     11550     11553     11556     11558     11550     11553     11556     11559
     11551     11550     11553     11554     11551     11550     11553     11555
     11551     11550     11553     11556     11552     11550     11553     11554
     11552     11550     11553     11555     11552     11550     11553     11556
     11553     11556     11559     11560     11553     11556     11559     11561
     11553     11556     11559     11562     11554     11553     11556     11557
     11554     11553     11556     11558     11554     11553     11556     11559
     11555     11553     11556     11557     11555     11553     11556     11558
     11555     11553     11556     11559     11556     11559     11562     11563
     11556     11559     11562     11564     11556     11559     11562     11565
     11557     11556     11559     11560     11557     11556     11559     11561
     11557     11556     11559     11562     11558     11556     11559     11560
     11558     11556     11559     11561     11558     11556     11559     11562
     11559     11562     11565     11566     11559     11562     11565     11567
     11559     11562     11565     11568     11560     11559     11562     11563
     11560     11559     11562     11564     11560     11559     11562     11565
     11561     11559     11562     11563     11561     11559     11562     11564
     11561     11559     11562     11565     11562     11565     11568     11569
     11562     11565     11568     11570     11562     11565     11568     11571
     11563     11562     11565     11566     11563     11562     11565     11567
     11563     11562     11565     11568     11564     11562     11565     11566
     11564     11562     11565     11567     11564     11562     11565     11568
     11565     11568     11571     11572     11565     11568     11571     11573
     11565     11568     11571     11574     11566     11565     11568     11569
     11566     11565     11568     11570     11566     11565     11568     11571
     11567     11565     11568     11569     11567     11565     11568     11570
     11567     11565     11568     11571     11568     11571     11574     11575
     11568     11571     11574     11576     11568     11571     11574     11577
     11569     11568     11571     11572     11569     11568     11571     11573
     11569     11568     11571     11574     11570     11568     11571     11572
     11570     11568     11571     11573     11570     11568     11571     11574
     11572     11571     11574     11575     11572     11571     11574     11576
     11572     11571     11574     11577     11573     11571     11574     11575
     11573     11571     11574     11576     11573     11571     11574     11577
     11578     11582     11584     11585     11578     11582     11584     11586
     11578     11582     11587     11588     11578     11582     11587     11589
     11578     11582     11587     11593     11579     11578     11582     11583
     11579     11578     11582     11584     11579     11578     11582     11587
     11580     11578     11582     11583     11580     11578     11582     11584
     11580     11578     11582     11587     11581     11578     11582     11583
     11581     11578     11582     11584     11581     11578     11582     11587
     11582     11587     11593     11590     11583     11582     11584     11585
     11583     11582     11584     11586     11583     11582     11587     11588
     11583     11582     11587     11589     11583     11582     11587     11593
     11584     11582     11587     11588     11584     11582     11587     11589
     11584     11582     11587     11593     11585     11584     11582     11587
     11586     11584     11582     11587     11587     11593     11590     11591
     11587     11593     11590     11592     11587     11593     11590     11594
     11588     11587     11593     11590     11589     11587     11593     11590
     11590     11594     11595     11596     11590     11594     11595     11597
     11590     11594     11595     11598     11591     11590     11594     11595
     11592     11590     11594     11595     11593     11590     11594     11595
     11594     11595     11598     11599     11594     11595     11598     11600
     11594     11595     11598     11606     11595     11598     11600     11601
     11595     11598     11606     11607     11595     11598     11606     11608
     11595     11598     11606     11609     11596     11595     11598     11599
     11596     11595     11598     11600     11596     11595     11598     11606
     11597     11595     11598     11599     11597     11595     11598     11600
     11597     11595     11598     11606     11598     11600     11601     11602
     11598     11600     11601     11603     11598     11606     11609     11610
     11599     11598     11600     11601     11599     11598     11606     11607
     11599     11598     11606     11608     11599     11598     11606     11609
     11600     11598     11606     11607     11600     11598     11606     11608
     11600     11598     11606     11609     11600     11601     11603     11604
     11600     11601     11603     11605     11600     11601     11603     11615
     11601     11600     11598     11606     11601     11603     11615     11616
     11601     11603     11615     11617     11601     11603     11615     11618
     11602     11601     11603     11604     11602     11601     11603     11605
     11602     11601     11603     11615     11603     11615     11618     11619
     11603     11615     11618     11620     11603     11615     11618     11621
     11604     11603     11615     11616     11604     11603     11615     11617
     11604     11603     11615     11618     11605     11603     11615     11616
     11605     11603     11615     11617     11605     11603     11615     11618
     11606     11609     11610     11611     11606     11609     11610     11612
     11607     11606     11609     11610     11608     11606     11609     11610
     11609     11610     11612     11613     11609     11610     11612     11614
     11609     11610     11612     11662     11610     11612     11662     11663
     11610     11612     11662     11664     11610     11612     11662     11665
     11611     11610     11612     11613     11611     11610     11612     11614
     11611     11610     11612     11662     11612     11662     11665     11666
     11612     11662     11665     11667     11612     11662     11665     11668
     11613     11612     11662     11663     11613     11612     11662     11664
     11613     11612     11662     11665     11614     11612     11662     11663
     11614     11612     11662     11664     11614     11612     11662     11665
     11615     11618     11621     11622     11615     11618     11621     11623
     11616     11615     11618     11619     11616     11615     11618     11620
     11616     11615     11618     11621     11617     11615     11618     11619
     11617     11615     11618     11620     11617     11615     11618     11621
     11618     11621     11623     11624     11618     11621     11623     11625
     11619     11618     11621     11622     11619     11618     11621     11623
     11620     11618     11621     11622     11620     11618     11621     11623
     11621     11623     11625     11626     11621     11623     11625     11627
     11621     11623     11625     11628     11622     11621     11623     11624
     11622     11621     11623     11625     11623     11625     11628     11629
     11623     11625     11628     11630     11624     11623     11625     11626
     11624     11623     11625     11627     11624     11623     11625     11628
     11625     11628     11630     11631     11625     11628     11630     11632
     11626     11625     11628     11629     11626     11625     11628     11630
     11627     11625     11628     11629     11627     11625     11628     11630
     11628     11630     11632     11633     11628     11630     11632     11634
     11628     11630     11632     11635     11629     11628     11630     11631
     11629     11628     11630     11632     11630     11632     11635     11636
     11630     11632     11635     11637     11631     11630     11632     11633
     11631     11630     11632     11634     11631     11630     11632     11635
     11632     11635     11637     11638     11632     11635     11637     11639
     11633     11632     11635     11636     11633     11632     11635     11637
     11634     11632     11635     11636     11634     11632     11635     11637
     11635     11637     11639     11640     11635     11637     11639     11641
     11635     11637     11639     11642     11636     11635     11637     11638
     11636     11635     11637     11639     11637     11639     11642     11643
     11637     11639     11642     11644     11638     11637     11639     11640
     11638     11637     11639     11641     11638     11637     11639     11642
     11639     11642     11644     11645     11639     11642     11644     11646
     11640     11639     11642     11643     11640     11639     11642     11644
     11641     11639     11642     11643     11641     11639     11642     11644
     11642     11644     11646     11647     11642     11644     11646     11648
     11642     11644     11646     11649     11643     11642     11644     11645
     11643     11642     11644     11646     11644     11646     11649     11650
     11644     11646     11649     11651     11644     11646     11649     11652
     11645     11644     11646     11647     11645     11644     11646     11648
     11645     11644     11646     11649     11646     11649     11652     11653
     11646     11649     11652     11654     11646     11649     11652     11655
     11647     11646     11649     11650     11647     11646     11649     11651
     11647     11646     11649     11652     11648     11646     11649     11650
     11648     11646     11649     11651     11648     11646     11649     11652
     11649     11652     11655     11656     11649     11652     11655     11657
     11649     11652     11655     11658     11650     11649     11652     11653
     11650     11649     11652     11654     11650     11649     11652     11655
     11651     11649     11652     11653     11651     11649     11652     11654
     11651     11649     11652     11655     11652     11655     11658     11659
     11652     11655     11658     11660     11652     11655     11658     11661
     11653     11652     11655     11656     11653     11652     11655     11657
     11653     11652     11655     11658     11654     11652     11655     11656
     11654     11652     11655     11657     11654     11652     11655     11658
     11656     11655     11658     11659     11656     11655     11658     11660
     11656     11655     11658     11661     11657     11655     11658     11659
     11657     11655     11658     11660     11657     11655     11658     11661
     11662     11665     11668     11669     11662     11665     11668     11670
     11662     11665     11668     11671     11663     11662     11665     11666
     11663     11662     11665     11667     11663     11662     11665     11668
     11664     11662     11665     11666     11664     11662     11665     11667
     11664     11662     11665     11668     11665     11668     11671     11672
     11665     11668     11671     11673     11665     11668     11671     11674
     11666     11665     11668     11669     11666     11665     11668     11670
     11666     11665     11668     11671     11667     11665     11668     11669
     11667     11665     11668     11670     11667     11665     11668     11671
     11668     11671     11674     11675     11668     11671     11674     11676
     11668     11671     11674     11677     11669     11668     11671     11672
     11669     11668     11671     11673     11669     11668     11671     11674
     11670     11668     11671     11672     11670     11668     11671     11673
     11670     11668     11671     11674     11671     11674     11677     11678
     11671     11674     11677     11679     11671     11674     11677     11680
     11672     11671     11674     11675     11672     11671     11674     11676
     11672     11671     11674     11677     11673     11671     11674     11675
     11673     11671     11674     11676     11673     11671     11674     11677
     11674     11677     11680     11681     11674     11677     11680     11682
     11674     11677     11680     11683     11675     11674     11677     11678
     11675     11674     11677     11679     11675     11674     11677     11680
     11676     11674     11677     11678     11676     11674     11677     11679
     11676     11674     11677     11680     11677     11680     11683     11684
     11677     11680     11683     11685     11677     11680     11683     11686
     11678     11677     11680     11681     11678     11677     11680     11682
     11678     11677     11680     11683     11679     11677     11680     11681
     11679     11677     11680     11682     11679     11677     11680     11683
     11680     11683     11686     11687     11680     11683     11686     11688
     11680     11683     11686     11689     11681     11680     11683     11684
     11681     11680     11683     11685     11681     11680     11683     11686
     11682     11680     11683     11684     11682     11680     11683     11685
     11682     11680     11683     11686     11683     11686     11689     11690
     11683     11686     11689     11691     11683     11686     11689     11692
     11684     11683     11686     11687     11684     11683     11686     11688
     11684     11683     11686     11689     11685     11683     11686     11687
     11685     11683     11686     11688     11685     11683     11686     11689
     11686     11689     11692     11693     11686     11689     11692     11694
     11686     11689     11692     11695     11687     11686     11689     11690
     11687     11686     11689     11691     11687     11686     11689     11692
     11688     11686     11689     11690     11688     11686     11689     11691
     11688     11686     11689     11692     11689     11692     11695     11696
     11689     11692     11695     11697     11689     11692     11695     11698
     11690     11689     11692     11693     11690     11689     11692     11694
     11690     11689     11692     11695     11691     11689     11692     11693
     11691     11689     11692     11694     11691     11689     11692     11695
     11692     11695     11698     11699     11692     11695     11698     11700
     11692     11695     11698     11701     11693     11692     11695     11696
     11693     11692     11695     11697     11693     11692     11695     11698
     11694     11692     11695     11696     11694     11692     11695     11697
     11694     11692     11695     11698     11695     11698     11701     11702
     11695     11698     11701     11703     11695     11698     11701     11704
     11696     11695     11698     11699     11696     11695     11698     11700
     11696     11695     11698     11701     11697     11695     11698     11699
     11697     11695     11698     11700     11697     11695     11698     11701
     11698     11701     11704     11705     11698     11701     11704     11706
     11698     11701     11704     11707     11699     11698     11701     11702
     11699     11698     11701     11703     11699     11698     11701     11704
     11700     11698     11701     11702     11700     11698     11701     11703
     11700     11698     11701     11704     11701     11704     11707     11708
     11701     11704     11707     11709     11701     11704     11707     11710
     11702     11701     11704     11705     11702     11701     11704     11706
     11702     11701     11704     11707     11703     11701     11704     11705
     11703     11701     11704     11706     11703     11701     11704     11707
     11705     11704     11707     11708     11705     11704     11707     11709
     11705     11704     11707     11710     11706     11704     11707     11708
     11706     11704     11707     11709     11706     11704     11707     11710
     11711     11724     11727     11728     11711     11724     11727     11729
     11711     11724     11727     11734     11712     11711     11716     11717
     11712     11711     11716     11718     11712     11711     11716     11719
     11712     11711     11720     11721     11712     11711     11720     11722
     11712     11711     11720     11723     11712     11711     11724     11725
     11712     11711     11724     11726     11712     11711     11724     11727
     11713     11712     11711     11716     11713     11712     11711     11720
     11713     11712     11711     11724     11714     11712     11711     11716
     11714     11712     11711     11720     11714     11712     11711     11724
     11715     11712     11711     11716     11715     11712     11711     11720
     11715     11712     11711     11724     11716     11711     11720     11721
     11716     11711     11720     11722     11716     11711     11720     11723
     11716     11711     11724     11725     11716     11711     11724     11726
     11716     11711     11724     11727     11717     11716     11711     11720
     11717     11716     11711     11724     11718     11716     11711     11720
     11718     11716     11711     11724     11719     11716     11711     11720
     11719     11716     11711     11724     11720     11711     11724     11725
     11720     11711     11724     11726     11720     11711     11724     11727
     11721     11720     11711     11724     11722     11720     11711     11724
     11723     11720     11711     11724     11724     11727     11734     11730
     11725     11724     11727     11728     11725     11724     11727     11729
     11725     11724     11727     11734     11726     11724     11727     11728
     11726     11724     11727     11729     11726     11724     11727     11734
     11727     11734     11730     11731     11727     11734     11730     11732
     11727     11734     11730     11733     11728     11727     11734     11730
     11729     11727     11734     11730     11730     11733     11735     11736
     11730     11733     11735     11737     11730     11733     11735     11740
     11731     11730     11733     11735     11732     11730     11733     11735
     11733     11735     11740     11738     11733     11735     11740     11741
     11733     11735     11740     11742     11734     11730     11733     11735
     11735     11740     11738     11739     11735     11740     11738     11790
     11735     11740     11742     11743     11735     11740     11742     11744
     11735     11740     11742     11746     11736     11735     11740     11738
     11736     11735     11740     11741     11736     11735     11740     11742
     11737     11735     11740     11738     11737     11735     11740     11741
     11737     11735     11740     11742     11738     11740     11742     11743
     11738     11740     11742     11744     11738     11740     11742     11746
     11738     11790     11792     11793     11738     11790     11792     11794
     11738     11790     11792     11795     11739     11738     11740     11741
     11739     11738     11740     11742     11739     11738     11790     11791
     11739     11738     11790     11792     11740     11738     11790     11791
     11740     11738     11790     11792     11740     11742     11744     11745
     11740     11742     11746     11747     11740     11742     11746     11748
     11741     11740     11738     11790     11741     11740     11742     11743
     11741     11740     11742     11744     11741     11740     11742     11746
     11742     11740     11738     11790     11742     11746     11748     11749
     11742     11746     11748     11750     11743     11742     11744     11745
     11743     11742     11746     11747     11743     11742     11746     11748
     11744     11742     11746     11747     11744     11742     11746     11748
     11745     11744     11742     11746     11746     11748     11750     11751
     11746     11748     11750     11752     11746     11748     11750     11753
     11747     11746     11748     11749     11747     11746     11748     11750
     11748     11750     11753     11754     11748     11750     11753     11755
     11748     11750     11753     11756     11749     11748     11750     11751
     11749     11748     11750     11752     11749     11748     11750     11753
     11750     11753     11756     11757     11750     11753     11756     11758
     11750     11753     11756     11759     11751     11750     11753     11754
     11751     11750     11753     11755     11751     11750     11753     11756
     11752     11750     11753     11754     11752     11750     11753     11755
     11752     11750     11753     11756     11753     11756     11759     11760
     11753     11756     11759     11761     11753     11756     11759     11762
     11754     11753     11756     11757     11754     11753     11756     11758
     11754     11753     11756     11759     11755     11753     11756     11757
     11755     11753     11756     11758     11755     11753     11756     11759
     11756     11759     11762     11763     11756     11759     11762     11764
     11756     11759     11762     11765     11757     11756     11759     11760
     11757     11756     11759     11761     11757     11756     11759     11762
     11758     11756     11759     11760     11758     11756     11759     11761
     11758     11756     11759     11762     11759     11762     11765     11766
     11759     11762     11765     11767     11759     11762     11765     11768
     11760     11759     11762     11763     11760     11759     11762     11764
     11760     11759     11762     11765     11761     11759     11762     11763
     11761     11759     11762     11764     11761     11759     11762     11765
     11762     11765     11768     11769     11762     11765     11768     11770
     11762     11765     11768     11771     11763     11762     11765     11766
     11763     11762     11765     11767     11763     11762     11765     11768
     11764     11762     11765     11766     11764     11762     11765     11767
     11764     11762     11765     11768     11765     11768     11771     11772
     11765     11768     11771     11773     11765     11768     11771     11774
     11766     11765     11768     11769     11766     11765     11768     11770
     11766     11765     11768     11771     11767     11765     11768     11769
     11767     11765     11768     11770     11767     11765     11768     11771
     11768     11771     11774     11775     11768     11771     11774     11776
     11768     11771     11774     11777     11769     11768     11771     11772
     11769     11768     11771     11773     11769     11768     11771     11774
     11770     11768     11771     11772     11770     11768     11771     11773
     11770     11768     11771     11774     11771     11774     11777     11778
     11771     11774     11777     11779     11771     11774     11777     11780
     11772     11771     11774     11775     11772     11771     11774     11776
     11772     11771     11774     11777     11773     11771     11774     11775
     11773     11771     11774     11776     11773     11771     11774     11777
     11774     11777     11780     11781     11774     11777     11780     11782
     11774     11777     11780     11783     11775     11774     11777     11778
     11775     11774     11777     11779     11775     11774     11777     11780
     11776     11774     11777     11778     11776     11774     11777     11779
     11776     11774     11777     11780     11777     11780     11783     11784
     11777     11780     11783     11785     11777     11780     11783     11786
     11778     11777     11780     11781     11778     11777     11780     11782
     11778     11777     11780     11783     11779     11777     11780     11781
     11779     11777     11780     11782     11779     11777     11780     11783
     11780     11783     11786     11787     11780     11783     11786     11788
     11780     11783     11786     11789     11781     11780     11783     11784
     11781     11780     11783     11785     11781     11780     11783     11786
     11782     11780     11783     11784     11782     11780     11783     11785
     11782     11780     11783     11786     11784     11783     11786     11787
     11784     11783     11786     11788     11784     11783     11786     11789
     11785     11783     11786     11787     11785     11783     11786     11788
     11785     11783     11786     11789     11790     11792     11795     11796
     11790     11792     11795     11797     11790     11792     11795     11798
     11791     11790     11792     11793     11791     11790     11792     11794
     11791     11790     11792     11795     11792     11795     11798     11799
     11792     11795     11798     11800     11792     11795     11798     11801
     11793     11792     11795     11796     11793     11792     11795     11797
     11793     11792     11795     11798     11794     11792     11795     11796
     11794     11792     11795     11797     11794     11792     11795     11798
     11795     11798     11801     11802     11795     11798     11801     11803
     11795     11798     11801     11804     11796     11795     11798     11799
     11796     11795     11798     11800     11796     11795     11798     11801
     11797     11795     11798     11799     11797     11795     11798     11800
     11797     11795     11798     11801     11798     11801     11804     11805
     11798     11801     11804     11806     11798     11801     11804     11807
     11799     11798     11801     11802     11799     11798     11801     11803
     11799     11798     11801     11804     11800     11798     11801     11802
     11800     11798     11801     11803     11800     11798     11801     11804
     11801     11804     11807     11808     11801     11804     11807     11809
     11801     11804     11807     11810     11802     11801     11804     11805
     11802     11801     11804     11806     11802     11801     11804     11807
     11803     11801     11804     11805     11803     11801     11804     11806
     11803     11801     11804     11807     11804     11807     11810     11811
     11804     11807     11810     11812     11804     11807     11810     11813
     11805     11804     11807     11808     11805     11804     11807     11809
     11805     11804     11807     11810     11806     11804     11807     11808
     11806     11804     11807     11809     11806     11804     11807     11810
     11807     11810     11813     11814     11807     11810     11813     11815
     11808     11807     11810     11811     11808     11807     11810     11812
     11808     11807     11810     11813     11809     11807     11810     11811
     11809     11807     11810     11812     11809     11807     11810     11813
     11810     11813     11815     11816     11810     11813     11815     11817
     11811     11810     11813     11814     11811     11810     11813     11815
     11812     11810     11813     11814     11812     11810     11813     11815
     11813     11815     11817     11818     11813     11815     11817     11819
     11813     11815     11817     11820     11814     11813     11815     11816
     11814     11813     11815     11817     11815     11817     11820     11821
     11815     11817     11820     11822     11815     11817     11820     11823
     11816     11815     11817     11818     11816     11815     11817     11819
     11816     11815     11817     11820     11817     11820     11823     11824
     11817     11820     11823     11825     11817     11820     11823     11826
     11818     11817     11820     11821     11818     11817     11820     11822
     11818     11817     11820     11823     11819     11817     11820     11821
     11819     11817     11820     11822     11819     11817     11820     11823
     11820     11823     11826     11827     11820     11823     11826     11828
     11820     11823     11826     11829     11821     11820     11823     11824
     11821     11820     11823     11825     11821     11820     11823     11826
     11822     11820     11823     11824     11822     11820     11823     11825
     11822     11820     11823     11826     11823     11826     11829     11830
     11823     11826     11829     11831     11823     11826     11829     11832
     11824     11823     11826     11827     11824     11823     11826     11828
     11824     11823     11826     11829     11825     11823     11826     11827
     11825     11823     11826     11828     11825     11823     11826     11829
     11826     11829     11832     11833     11826     11829     11832     11834
     11826     11829     11832     11835     11827     11826     11829     11830
     11827     11826     11829     11831     11827     11826     11829     11832
     11828     11826     11829     11830     11828     11826     11829     11831
     11828     11826     11829     11832     11829     11832     11835     11836
     11829     11832     11835     11837     11829     11832     11835     11838
     11830     11829     11832     11833     11830     11829     11832     11834
     11830     11829     11832     11835     11831     11829     11832     11833
     11831     11829     11832     11834     11831     11829     11832     11835
     11832     11835     11838     11839     11832     11835     11838     11840
     11832     11835     11838     11841     11833     11832     11835     11836
     11833     11832     11835     11837     11833     11832     11835     11838
     11834     11832     11835     11836     11834     11832     11835     11837
     11834     11832     11835     11838     11836     11835     11838     11839
     11836     11835     11838     11840     11836     11835     11838     11841
     11837     11835     11838     11839     11837     11835     11838     11840
     11837     11835     11838     11841     11842     11846     11849     11850
     11842     11846     11849     11851     11842     11846     11849     11855
     11843     11842     11846     11847     11843     11842     11846     11848
     11843     11842     11846     11849     11844     11842     11846     11847
     11844     11842     11846     11848     11844     11842     11846     11849
     11845     11842     11846     11847     11845     11842     11846     11848
     11845     11842     11846     11849     11846     11849     11855     11852
     11847     11846     11849     11850     11847     11846     11849     11851
     11847     11846     11849     11855     11848     11846     11849     11850
     11848     11846     11849     11851     11848     11846     11849     11855
     11849     11855     11852     11853     11849     11855     11852     11854
     11849     11855     11852     11856     11850     11849     11855     11852
     11851     11849     11855     11852     11852     11856     11857     11858
     11852     11856     11857     11859     11852     11856     11857     11860
     11853     11852     11856     11857     11854     11852     11856     11857
     11855     11852     11856     11857     11856     11857     11860     11861
     11856     11857     11860     11862     11856     11857     11860     11868
     11857     11860     11862     11863     11857     11860     11868     11869
     11857     11860     11868     11870     11857     11860     11868     11871
     11858     11857     11860     11861     11858     11857     11860     11862
     11858     11857     11860     11868     11859     11857     11860     11861
     11859     11857     11860     11862     11859     11857     11860     11868
     11860     11862     11863     11864     11860     11862     11863     11865
     11860     11868     11871     11872     11861     11860     11862     11863
     11861     11860     11868     11869     11861     11860     11868     11870
     11861     11860     11868     11871     11862     11860     11868     11869
     11862     11860     11868     11870     11862     11860     11868     11871
     11862     11863     11865     11866     11862     11863     11865     11867
     11862     11863     11865     11877     11863     11862     11860     11868
     11863     11865     11877     11878     11863     11865     11877     11879
     11863     11865     11877     11880     11864     11863     11865     11866
     11864     11863     11865     11867     11864     11863     11865     11877
     11865     11877     11880     11881     11865     11877     11880     11882
     11865     11877     11880     11883     11866     11865     11877     11878
     11866     11865     11877     11879     11866     11865     11877     11880
     11867     11865     11877     11878     11867     11865     11877     11879
     11867     11865     11877     11880     11868     11871     11872     11873
     11868     11871     11872     11874     11869     11868     11871     11872
     11870     11868     11871     11872     11871     11872     11874     11875
     11871     11872     11874     11876     11871     11872     11874     11924
     11872     11874     11924     11925     11872     11874     11924     11926
     11872     11874     11924     11927     11873     11872     11874     11875
     11873     11872     11874     11876     11873     11872     11874     11924
     11874     11924     11927     11928     11874     11924     11927     11929
     11874     11924     11927     11930     11875     11874     11924     11925
     11875     11874     11924     11926     11875     11874     11924     11927
     11876     11874     11924     11925     11876     11874     11924     11926
     11876     11874     11924     11927     11877     11880     11883     11884
     11877     11880     11883     11885     11878     11877     11880     11881
     11878     11877     11880     11882     11878     11877     11880     11883
     11879     11877     11880     11881     11879     11877     11880     11882
     11879     11877     11880     11883     11880     11883     11885     11886
     11880     11883     11885     11887     11881     11880     11883     11884
     11881     11880     11883     11885     11882     11880     11883     11884
     11882     11880     11883     11885     11883     11885     11887     11888
     11883     11885     11887     11889     11883     11885     11887     11890
     11884     11883     11885     11886     11884     11883     11885     11887
     11885     11887     11890     11891     11885     11887     11890     11892
     11886     11885     11887     11888     11886     11885     11887     11889
     11886     11885     11887     11890     11887     11890     11892     11893
     11887     11890     11892     11894     11888     11887     11890     11891
     11888     11887     11890     11892     11889     11887     11890     11891
     11889     11887     11890     11892     11890     11892     11894     11895
     11890     11892     11894     11896     11890     11892     11894     11897
     11891     11890     11892     11893     11891     11890     11892     11894
     11892     11894     11897     11898     11892     11894     11897     11899
     11893     11892     11894     11895     11893     11892     11894     11896
     11893     11892     11894     11897     11894     11897     11899     11900
     11894     11897     11899     11901     11895     11894     11897     11898
     11895     11894     11897     11899     11896     11894     11897     11898
     11896     11894     11897     11899     11897     11899     11901     11902
     11897     11899     11901     11903     11897     11899     11901     11904
     11898     11897     11899     11900     11898     11897     11899     11901
     11899     11901     11904     11905     11899     11901     11904     11906
     11900     11899     11901     11902     11900     11899     11901     11903
     11900     11899     11901     11904     11901     11904     11906     11907
     11901     11904     11906     11908     11902     11901     11904     11905
     11902     11901     11904     11906     11903     11901     11904     11905
     11903     11901     11904     11906     11904     11906     11908     11909
     11904     11906     11908     11910     11904     11906     11908     11911
     11905     11904     11906     11907     11905     11904     11906     11908
     11906     11908     11911     11912     11906     11908     11911     11913
     11906     11908     11911     11914     11907     11906     11908     11909
     11907     11906     11908     11910     11907     11906     11908     11911
     11908     11911     11914     11915     11908     11911     11914     11916
     11908     11911     11914     11917     11909     11908     11911     11912
     11909     11908     11911     11913     11909     11908     11911     11914
     11910     11908     11911     11912     11910     11908     11911     11913
     11910     11908     11911     11914     11911     11914     11917     11918
     11911     11914     11917     11919     11911     11914     11917     11920
     11912     11911     11914     11915     11912     11911     11914     11916
     11912     11911     11914     11917     11913     11911     11914     11915
     11913     11911     11914     11916     11913     11911     11914     11917
     11914     11917     11920     11921     11914     11917     11920     11922
     11914     11917     11920     11923     11915     11914     11917     11918
     11915     11914     11917     11919     11915     11914     11917     11920
     11916     11914     11917     11918     11916     11914     11917     11919
     11916     11914     11917     11920     11918     11917     11920     11921
     11918     11917     11920     11922     11918     11917     11920     11923
     11919     11917     11920     11921     11919     11917     11920     11922
     11919     11917     11920     11923     11924     11927     11930     11931
     11924     11927     11930     11932     11924     11927     11930     11933
     11925     11924     11927     11928     11925     11924     11927     11929
     11925     11924     11927     11930     11926     11924     11927     11928
     11926     11924     11927     11929     11926     11924     11927     11930
     11927     11930     11933     11934     11927     11930     11933     11935
     11927     11930     11933     11936     11928     11927     11930     11931
     11928     11927     11930     11932     11928     11927     11930     11933
     11929     11927     11930     11931     11929     11927     11930     11932
     11929     11927     11930     11933     11930     11933     11936     11937
     11930     11933     11936     11938     11930     11933     11936     11939
     11931     11930     11933     11934     11931     11930     11933     11935
     11931     11930     11933     11936     11932     11930     11933     11934
     11932     11930     11933     11935     11932     11930     11933     11936
     11933     11936     11939     11940     11933     11936     11939     11941
     11933     11936     11939     11942     11934     11933     11936     11937
     11934     11933     11936     11938     11934     11933     11936     11939
     11935     11933     11936     11937     11935     11933     11936     11938
     11935     11933     11936     11939     11936     11939     11942     11943
     11936     11939     11942     11944     11936     11939     11942     11945
     11937     11936     11939     11940     11937     11936     11939     11941
     11937     11936     11939     11942     11938     11936     11939     11940
     11938     11936     11939     11941     11938     11936     11939     11942
     11939     11942     11945     11946     11939     11942     11945     11947
     11939     11942     11945     11948     11940     11939     11942     11943
     11940     11939     11942     11944     11940     11939     11942     11945
     11941     11939     11942     11943     11941     11939     11942     11944
     11941     11939     11942     11945     11942     11945     11948     11949
     11942     11945     11948     11950     11942     11945     11948     11951
     11943     11942     11945     11946     11943     11942     11945     11947
     11943     11942     11945     11948     11944     11942     11945     11946
     11944     11942     11945     11947     11944     11942     11945     11948
     11945     11948     11951     11952     11945     11948     11951     11953
     11945     11948     11951     11954     11946     11945     11948     11949
     11946     11945     11948     11950     11946     11945     11948     11951
     11947     11945     11948     11949     11947     11945     11948     11950
     11947     11945     11948     11951     11948     11951     11954     11955
     11948     11951     11954     11956     11948     11951     11954     11957
     11949     11948     11951     11952     11949     11948     11951     11953
     11949     11948     11951     11954     11950     11948     11951     11952
     11950     11948     11951     11953     11950     11948     11951     11954
     11951     11954     11957     11958     11951     11954     11957     11959
     11951     11954     11957     11960     11952     11951     11954     11955
     11952     11951     11954     11956     11952     11951     11954     11957
     11953     11951     11954     11955     11953     11951     11954     11956
     11953     11951     11954     11957     11954     11957     11960     11961
     11954     11957     11960     11962     11954     11957     11960     11963
     11955     11954     11957     11958     11955     11954     11957     11959
     11955     11954     11957     11960     11956     11954     11957     11958
     11956     11954     11957     11959     11956     11954     11957     11960
     11957     11960     11963     11964     11957     11960     11963     11965
     11957     11960     11963     11966     11958     11957     11960     11961
     11958     11957     11960     11962     11958     11957     11960     11963
     11959     11957     11960     11961     11959     11957     11960     11962
     11959     11957     11960     11963     11960     11963     11966     11967
     11960     11963     11966     11968     11960     11963     11966     11969
     11961     11960     11963     11964     11961     11960     11963     11965
     11961     11960     11963     11966     11962     11960     11963     11964
     11962     11960     11963     11965     11962     11960     11963     11966
     11963     11966     11969     11970     11963     11966     11969     11971
     11963     11966     11969     11972     11964     11963     11966     11967
     11964     11963     11966     11968     11964     11963     11966     11969
     11965     11963     11966     11967     11965     11963     11966     11968
     11965     11963     11966     11969     11967     11966     11969     11970
     11967     11966     11969     11971     11967     11966     11969     11972
     11968     11966     11969     11970     11968     11966     11969     11971
     11968     11966     11969     11972     11973     11986     11989     11990
     11973     11986     11989     11991     11973     11986     11989     11996
     11974     11973     11978     11979     11974     11973     11978     11980
     11974     11973     11978     11981     11974     11973     11982     11983
     11974     11973     11982     11984     11974     11973     11982     11985
     11974     11973     11986     11987     11974     11973     11986     11988
     11974     11973     11986     11989     11975     11974     11973     11978
     11975     11974     11973     11982     11975     11974     11973     11986
     11976     11974     11973     11978     11976     11974     11973     11982
     11976     11974     11973     11986     11977     11974     11973     11978
     11977     11974     11973     11982     11977     11974     11973     11986
     11978     11973     11982     11983     11978     11973     11982     11984
     11978     11973     11982     11985     11978     11973     11986     11987
     11978     11973     11986     11988     11978     11973     11986     11989
     11979     11978     11973     11982     11979     11978     11973     11986
     11980     11978     11973     11982     11980     11978     11973     11986
     11981     11978     11973     11982     11981     11978     11973     11986
     11982     11973     11986     11987     11982     11973     11986     11988
     11982     11973     11986     11989     11983     11982     11973     11986
     11984     11982     11973     11986     11985     11982     11973     11986
     11986     11989     11996     11992     11987     11986     11989     11990
     11987     11986     11989     11991     11987     11986     11989     11996
     11988     11986     11989     11990     11988     11986     11989     11991
     11988     11986     11989     11996     11989     11996     11992     11993
     11989     11996     11992     11994     11989     11996     11992     11995
     11990     11989     11996     11992     11991     11989     11996     11992
     11992     11995     11997     11998     11992     11995     11997     11999
     11992     11995     11997     12002     11993     11992     11995     11997
     11994     11992     11995     11997     11995     11997     12002     12000
     11995     11997     12002     12003     11995     11997     12002     12004
     11996     11992     11995     11997     11997     12002     12000     12001
     11997     12002     12000     12052     11997     12002     12004     12005
     11997     12002     12004     12006     11997     12002     12004     12008
     11998     11997     12002     12000     11998     11997     12002     12003
     11998     11997     12002     12004     11999     11997     12002     12000
     11999     11997     12002     12003     11999     11997     12002     12004
     12000     12002     12004     12005     12000     12002     12004     12006
     12000     12002     12004     12008     12000     12052     12054     12055
     12000     12052     12054     12056     12000     12052     12054     12057
     12001     12000     12002     12003     12001     12000     12002     12004
     12001     12000     12052     12053     12001     12000     12052     12054
     12002     12000     12052     12053     12002     12000     12052     12054
     12002     12004     12006     12007     12002     12004     12008     12009
     12002     12004     12008     12010     12003     12002     12000     12052
     12003     12002     12004     12005     12003     12002     12004     12006
     12003     12002     12004     12008     12004     12002     12000     12052
     12004     12008     12010     12011     12004     12008     12010     12012
     12005     12004     12006     12007     12005     12004     12008     12009
     12005     12004     12008     12010     12006     12004     12008     12009
     12006     12004     12008     12010     12007     12006     12004     12008
     12008     12010     12012     12013     12008     12010     12012     12014
     12008     12010     12012     12015     12009     12008     12010     12011
     12009     12008     12010     12012     12010     12012     12015     12016
     12010     12012     12015     12017     12010     12012     12015     12018
     12011     12010     12012     12013     12011     12010     12012     12014
     12011     12010     12012     12015     12012     12015     12018     12019
     12012     12015     12018     12020     12012     12015     12018     12021
     12013     12012     12015     12016     12013     12012     12015     12017
     12013     12012     12015     12018     12014     12012     12015     12016
     12014     12012     12015     12017     12014     12012     12015     12018
     12015     12018     12021     12022     12015     12018     12021     12023
     12015     12018     12021     12024     12016     12015     12018     12019
     12016     12015     12018     12020     12016     12015     12018     12021
     12017     12015     12018     12019     12017     12015     12018     12020
     12017     12015     12018     12021     12018     12021     12024     12025
     12018     12021     12024     12026     12018     12021     12024     12027
     12019     12018     12021     12022     12019     12018     12021     12023
     12019     12018     12021     12024     12020     12018     12021     12022
     12020     12018     12021     12023     12020     12018     12021     12024
     12021     12024     12027     12028     12021     12024     12027     12029
     12021     12024     12027     12030     12022     12021     12024     12025
     12022     12021     12024     12026     12022     12021     12024     12027
     12023     12021     12024     12025     12023     12021     12024     12026
     12023     12021     12024     12027     12024     12027     12030     12031
     12024     12027     12030     12032     12024     12027     12030     12033
     12025     12024     12027     12028     12025     12024     12027     12029
     12025     12024     12027     12030     12026     12024     12027     12028
     12026     12024     12027     12029     12026     12024     12027     12030
     12027     12030     12033     12034     12027     12030     12033     12035
     12027     12030     12033     12036     12028     12027     12030     12031
     12028     12027     12030     12032     12028     12027     12030     12033
     12029     12027     12030     12031     12029     12027     12030     12032
     12029     12027     12030     12033     12030     12033     12036     12037
     12030     12033     12036     12038     12030     12033     12036     12039
     12031     12030     12033     12034     12031     12030     12033     12035
     12031     12030     12033     12036     12032     12030     12033     12034
     12032     12030     12033     12035     12032     12030     12033     12036
     12033     12036     12039     12040     12033     12036     12039     12041
     12033     12036     12039     12042     12034     12033     12036     12037
     12034     12033     12036     12038     12034     12033     12036     12039
     12035     12033     12036     12037     12035     12033     12036     12038
     12035     12033     12036     12039     12036     12039     12042     12043
     12036     12039     12042     12044     12036     12039     12042     12045
     12037     12036     12039     12040     12037     12036     12039     12041
     12037     12036     12039     12042     12038     12036     12039     12040
     12038     12036     12039     12041     12038     12036     12039     12042
     12039     12042     12045     12046     12039     12042     12045     12047
     12039     12042     12045     12048     12040     12039     12042     12043
     12040     12039     12042     12044     12040     12039     12042     12045
     12041     12039     12042     12043     12041     12039     12042     12044
     12041     12039     12042     12045     12042     12045     12048     12049
     12042     12045     12048     12050     12042     12045     12048     12051
     12043     12042     12045     12046     12043     12042     12045     12047
     12043     12042     12045     12048     12044     12042     12045     12046
     12044     12042     12045     12047     12044     12042     12045     12048
     12046     12045     12048     12049     12046     12045     12048     12050
     12046     12045     12048     12051     12047     12045     12048     12049
     12047     12045     12048     12050     12047     12045     12048     12051
     12052     12054     12057     12058     12052     12054     12057     12059
     12052     12054     12057     12060     12053     12052     12054     12055
     12053     12052     12054     12056     12053     12052     12054     12057
     12054     12057     12060     12061     12054     12057     12060     12062
     12054     12057     12060     12063     12055     12054     12057     12058
     12055     12054     12057     12059     12055     12054     12057     12060
     12056     12054     12057     12058     12056     12054     12057     12059
     12056     12054     12057     12060     12057     12060     12063     12064
     12057     12060     12063     12065     12057     12060     12063     12066
     12058     12057     12060     12061     12058     12057     12060     12062
     12058     12057     12060     12063     12059     12057     12060     12061
     12059     12057     12060     12062     12059     12057     12060     12063
     12060     12063     12066     12067     12060     12063     12066     12068
     12060     12063     12066     12069     12061     12060     12063     12064
     12061     12060     12063     12065     12061     12060     12063     12066
     12062     12060     12063     12064     12062     12060     12063     12065
     12062     12060     12063     12066     12063     12066     12069     12070
     12063     12066     12069     12071     12063     12066     12069     12072
     12064     12063     12066     12067     12064     12063     12066     12068
     12064     12063     12066     12069     12065     12063     12066     12067
     12065     12063     12066     12068     12065     12063     12066     12069
     12066     12069     12072     12073     12066     12069     12072     12074
     12066     12069     12072     12075     12067     12066     12069     12070
     12067     12066     12069     12071     12067     12066     12069     12072
     12068     12066     12069     12070     12068     12066     12069     12071
     12068     12066     12069     12072     12069     12072     12075     12076
     12069     12072     12075     12077     12070     12069     12072     12073
     12070     12069     12072     12074     12070     12069     12072     12075
     12071     12069     12072     12073     12071     12069     12072     12074
     12071     12069     12072     12075     12072     12075     12077     12078
     12072     12075     12077     12079     12073     12072     12075     12076
     12073     12072     12075     12077     12074     12072     12075     12076
     12074     12072     12075     12077     12075     12077     12079     12080
     12075     12077     12079     12081     12075     12077     12079     12082
     12076     12075     12077     12078     12076     12075     12077     12079
     12077     12079     12082     12083     12077     12079     12082     12084
     12077     12079     12082     12085     12078     12077     12079     12080
     12078     12077     12079     12081     12078     12077     12079     12082
     12079     12082     12085     12086     12079     12082     12085     12087
     12079     12082     12085     12088     12080     12079     12082     12083
     12080     12079     12082     12084     12080     12079     12082     12085
     12081     12079     12082     12083     12081     12079     12082     12084
     12081     12079     12082     12085     12082     12085     12088     12089
     12082     12085     12088     12090     12082     12085     12088     12091
     12083     12082     12085     12086     12083     12082     12085     12087
     12083     12082     12085     12088     12084     12082     12085     12086
     12084     12082     12085     12087     12084     12082     12085     12088
     12085     12088     12091     12092     12085     12088     12091     12093
     12085     12088     12091     12094     12086     12085     12088     12089
     12086     12085     12088     12090     12086     12085     12088     12091
     12087     12085     12088     12089     12087     12085     12088     12090
     12087     12085     12088     12091     12088     12091     12094     12095
     12088     12091     12094     12096     12088     12091     12094     12097
     12089     12088     12091     12092     12089     12088     12091     12093
     12089     12088     12091     12094     12090     12088     12091     12092
     12090     12088     12091     12093     12090     12088     12091     12094
     12091     12094     12097     12098     12091     12094     12097     12099
     12091     12094     12097     12100     12092     12091     12094     12095
     12092     12091     12094     12096     12092     12091     12094     12097
     12093     12091     12094     12095     12093     12091     12094     12096
     12093     12091     12094     12097     12094     12097     12100     12101
     12094     12097     12100     12102     12094     12097     12100     12103
     12095     12094     12097     12098     12095     12094     12097     12099
     12095     12094     12097     12100     12096     12094     12097     12098
     12096     12094     12097     12099     12096     12094     12097     12100
     12098     12097     12100     12101     12098     12097     12100     12102
     12098     12097     12100     12103     12099     12097     12100     12101
     12099     12097     12100     12102     12099     12097     12100     12103
     12104     12108     12111     12112     12104     12108     12111     12142
     12104     12150     12147     12142     12104     12150     12147     12148
     12104     12150     12147     12149     12105     12104     12106     12107
     12105     12104     12108     12109     12105     12104     12108     12110
     12105     12104     12108     12111     12105     12104     12150     12147
     12105     12104     12150     12151     12105     12104     12150     12152
     12106     12104     12108     12109     12106     12104     12108     12110
     12106     12104     12108     12111     12106     12104     12150     12147
     12106     12104     12150     12151     12106     12104     12150     12152
     12107     12106     12104     12108     12107     12106     12104     12150
     12108     12104     12150     12147     12108     12104     12150     12151
     12108     12104     12150     12152     12108     12111     12112     12113
     12108     12111     12112     12114     12108     12111     12142     12140
     12108     12111     12142     12143     12108     12111     12142     12147
     12109     12108     12104     12150     12109     12108     12111     12112
     12109     12108     12111     12142     12110     12108     12104     12150
     12110     12108     12111     12112     12110     12108     12111     12142
     12111     12108     12104     12150     12111     12112     12114     12115
     12111     12112     12114     12116     12111     12112     12114     12117
     12111     12142     12140     12117     12111     12142     12140     12137
     12111     12142     12140     12141     12111     12142     12143     12144
     12111     12142     12143     12145     12111     12142     12143     12146
     12111     12142     12147     12148     12111     12142     12147     12149
     12111     12142     12147     12150     12112     12111     12142     12140
     12112     12111     12142     12143     12112     12111     12142     12147
     12112     12114     12117     12118     12112     12114     12117     12119
     12112     12114     12117     12140     12113     12112     12111     12142
     12113     12112     12114     12115     12113     12112     12114     12116
     12113     12112     12114     12117     12114     12112     12111     12142
     12114     12117     12119     12120     12114     12117     12119     12121
     12114     12117     12119     12129     12114     12117     12140     12137
     12114     12117     12140     12141     12114     12117     12140     12142
     12115     12114     12117     12118     12115     12114     12117     12119
     12115     12114     12117     12140     12116     12114     12117     12118
     12116     12114     12117     12119     12116     12114     12117     12140
     12117     12119     12121     12122     12117     12119     12121     12123
     12117     12119     12121     12124     12117     12119     12129     12127
     12117     12119     12129     12130     12117     12119     12129     12134
     12117     12140     12137     12134     12117     12140     12137     12138
     12117     12140     12137     12139     12117     12140     12142     12143
     12117     12140     12142     12147     12118     12117     12119     12120
     12118     12117     12119     12121     12118     12117     12119     12129
     12118     12117     12140     12137     12118     12117     12140     12141
     12118     12117     12140     12142     12119     12117     12140     12137
     12119     12117     12140     12141     12119     12117     12140     12142
     12119     12121     12124     12125     12119     12121     12124     12126
     12119     12121     12124     12127     12119     12129     12127     12124
     12119     12129     12127     12128     12119     12129     12127     12153
     12119     12129     12130     12131     12119     12129     12130     12132
     12119     12129     12130     12133     12119     12129     12134     12135
     12119     12129     12134     12136     12119     12129     12134     12137
     12120     12119     12117     12140     12120     12119     12121     12122
     12120     12119     12121     12123     12120     12119     12121     12124
     12120     12119     12129     12127     12120     12119     12129     12130
     12120     12119     12129     12134     12121     12119     12117     12140
     12121     12119     12129     12127     12121     12119     12129     12130
     12121     12119     12129     12134     12121     12124     12127     12128
     12121     12124     12127     12129     12121     12124     12127     12153
     12122     12121     12119     12129     12122     12121     12124     12125
     12122     12121     12124     12126     12122     12121     12124     12127
     12123     12121     12119     12129     12123     12121     12124     12125
     12123     12121     12124     12126     12123     12121     12124     12127
     12124     12121     12119     12129     12124     12127     12129     12130
     12124     12127     12129     12134     12124     12127     12153     12154
     12124     12127     12153     12155     12124     12127     12153     12159
     12125     12124     12127     12128     12125     12124     12127     12129
     12125     12124     12127     12153     12126     12124     12127     12128
     12126     12124     12127     12129     12126     12124     12127     12153
     12127     12129     12130     12131     12127     12129     12130     12132
     12127     12129     12130     12133     12127     12129     12134     12135
     12127     12129     12134     12136     12127     12129     12134     12137
     12127     12153     12155     12156     12127     12153     12155     12157
     12127     12153     12155     12158     12127     12153     12159     12160
     12127     12153     12159     12161     12127     12153     12159     12162
     12128     12127     12129     12130     12128     12127     12129     12134
     12128     12127     12153     12154     12128     12127     12153     12155
     12128     12127     12153     12159     12129     12119     12117     12140
     12129     12127     12153     12154     12129     12127     12153     12155
     12129     12127     12153     12159     12129     12134     12137     12138
     12129     12134     12137     12139     12129     12134     12137     12140
     12130     12129     12127     12153     12130     12129     12134     12135
     12130     12129     12134     12136     12130     12129     12134     12137
     12131     12130     12129     12134     12132     12130     12129     12134
     12133     12130     12129     12134     12134     12129     12127     12153
     12134     12137     12140     12141     12134     12137     12140     12142
     12135     12134     12137     12138     12135     12134     12137     12139
     12135     12134     12137     12140     12136     12134     12137     12138
     12136     12134     12137     12139     12136     12134     12137     12140
     12137     12140     12142     12143     12137     12140     12142     12147
     12138     12137     12140     12141     12138     12137     12140     12142
     12139     12137     12140     12141     12139     12137     12140     12142
     12140     12142     12143     12144     12140     12142     12143     12145
     12140     12142     12143     12146     12140     12142     12147     12148
     12140     12142     12147     12149     12140     12142     12147     12150
     12141     12140     12142     12143     12141     12140     12142     12147
     12142     12147     12150     12151     12142     12147     12150     12152
     12143     12142     12147     12148     12143     12142     12147     12149
     12143     12142     12147     12150     12144     12143     12142     12147
     12145     12143     12142     12147     12146     12143     12142     12147
     12148     12147     12150     12151     12148     12147     12150     12152
     12149     12147     12150     12151     12149     12147     12150     12152
     12153     12159     12162     12163     12153     12159     12162     12164
     12153     12159     12162     12165     12154     12153     12155     12156
     12154     12153     12155     12157     12154     12153     12155     12158
     12154     12153     12159     12160     12154     12153     12159     12161
     12154     12153     12159     12162     12155     12153     12159     12160
     12155     12153     12159     12161     12155     12153     12159     12162
     12156     12155     12153     12159     12157     12155     12153     12159
     12158     12155     12153     12159     12159     12162     12165     12166
     12159     12162     12165     12167     12159     12162     12165     12168
     12160     12159     12162     12163     12160     12159     12162     12164
     12160     12159     12162     12165     12161     12159     12162     12163
     12161     12159     12162     12164     12161     12159     12162     12165
     12162     12165     12168     12169     12162     12165     12168     12170
     12162     12165     12168     12174     12163     12162     12165     12166
     12163     12162     12165     12167     12163     12162     12165     12168
     12164     12162     12165     12166     12164     12162     12165     12167
     12164     12162     12165     12168     12165     12168     12170     12171
     12165     12168     12170     12172     12165     12168     12170     12173
     12165     12168     12174     12175     12165     12168     12174     12176
     12165     12168     12174     12177     12166     12165     12168     12169
     12166     12165     12168     12170     12166     12165     12168     12174
     12167     12165     12168     12169     12167     12165     12168     12170
     12167     12165     12168     12174     12169     12168     12170     12171
     12169     12168     12170     12172     12169     12168     12170     12173
     12169     12168     12174     12175     12169     12168     12174     12176
     12169     12168     12174     12177     12170     12168     12174     12175
     12170     12168     12174     12176     12170     12168     12174     12177
     12171     12170     12168     12174     12172     12170     12168     12174
     12173     12170     12168     12174     12178     12179     12194     12195
     12178     12179     12194     12196     12178     12179     12194     12200
     12179     12178     12182     12183     12179     12178     12182     12184
     12179     12178     12182     12185     12179     12178     12186     12187
     12179     12178     12186     12188     12179     12178     12186     12189
     12179     12178     12190     12191     12179     12178     12190     12192
     12179     12178     12190     12193     12179     12194     12200     12197
     12180     12179     12178     12182     12180     12179     12178     12186
     12180     12179     12178     12190     12180     12179     12194     12195
     12180     12179     12194     12196     12180     12179     12194     12200
     12181     12179     12178     12182     12181     12179     12178     12186
     12181     12179     12178     12190     12181     12179     12194     12195
     12181     12179     12194     12196     12181     12179     12194     12200
     12182     12178     12179     12194     12182     12178     12186     12187
     12182     12178     12186     12188     12182     12178     12186     12189
     12182     12178     12190     12191     12182     12178     12190     12192
     12182     12178     12190     12193     12183     12182     12178     12186
     12183     12182     12178     12190     12184     12182     12178     12186
     12184     12182     12178     12190     12185     12182     12178     12186
     12185     12182     12178     12190     12186     12178     12179     12194
     12186     12178     12190     12191     12186     12178     12190     12192
     12186     12178     12190     12193     12187     12186     12178     12190
     12188     12186     12178     12190     12189     12186     12178     12190
     12190     12178     12179     12194     12194     12200     12197     12198
     12194     12200     12197     12199     12194     12200     12197     12201
     12195     12194     12200     12197     12196     12194     12200     12197
     12197     12201     12202     12203     12197     12201     12202     12204
     12197     12201     12202     12205     12198     12197     12201     12202
     12199     12197     12201     12202     12200     12197     12201     12202
     12201     12202     12205     12206     12201     12202     12205     12207
     12201     12202     12205     12213     12202     12205     12207     12208
     12202     12205     12213     12214     12202     12205     12213     12215
     12202     12205     12213     12216     12203     12202     12205     12206
     12203     12202     12205     12207     12203     12202     12205     12213
     12204     12202     12205     12206     12204     12202     12205     12207
     12204     12202     12205     12213     12205     12207     12208     12209
     12205     12207     12208     12210     12205     12213     12216     12217
     12206     12205     12207     12208     12206     12205     12213     12214
     12206     12205     12213     12215     12206     12205     12213     12216
     12207     12205     12213     12214     12207     12205     12213     12215
     12207     12205     12213     12216     12207     12208     12210     12211
     12207     12208     12210     12212     12207     12208     12210     12222
     12208     12207     12205     12213     12208     12210     12222     12223
     12208     12210     12222     12224     12208     12210     12222     12225
     12209     12208     12210     12211     12209     12208     12210     12212
     12209     12208     12210     12222     12210     12222     12225     12226
     12210     12222     12225     12227     12210     12222     12225     12228
     12211     12210     12222     12223     12211     12210     12222     12224
     12211     12210     12222     12225     12212     12210     12222     12223
     12212     12210     12222     12224     12212     12210     12222     12225
     12213     12216     12217     12218     12213     12216     12217     12219
     12214     12213     12216     12217     12215     12213     12216     12217
     12216     12217     12219     12220     12216     12217     12219     12221
     12216     12217     12219     12269     12217     12219     12269     12270
     12217     12219     12269     12271     12217     12219     12269     12272
     12218     12217     12219     12220     12218     12217     12219     12221
     12218     12217     12219     12269     12219     12269     12272     12273
     12219     12269     12272     12274     12219     12269     12272     12275
     12220     12219     12269     12270     12220     12219     12269     12271
     12220     12219     12269     12272     12221     12219     12269     12270
     12221     12219     12269     12271     12221     12219     12269     12272
     12222     12225     12228     12229     12222     12225     12228     12230
     12222     12225     12228     12231     12223     12222     12225     12226
     12223     12222     12225     12227     12223     12222     12225     12228
     12224     12222     12225     12226     12224     12222     12225     12227
     12224     12222     12225     12228     12225     12228     12231     12232
     12225     12228     12231     12233     12225     12228     12231     12234
     12226     12225     12228     12229     12226     12225     12228     12230
     12226     12225     12228     12231     12227     12225     12228     12229
     12227     12225     12228     12230     12227     12225     12228     12231
     12228     12231     12234     12235     12228     12231     12234     12236
     12228     12231     12234     12237     12229     12228     12231     12232
     12229     12228     12231     12233     12229     12228     12231     12234
     12230     12228     12231     12232     12230     12228     12231     12233
     12230     12228     12231     12234     12231     12234     12237     12238
     12231     12234     12237     12239     12231     12234     12237     12240
     12232     12231     12234     12235     12232     12231     12234     12236
     12232     12231     12234     12237     12233     12231     12234     12235
     12233     12231     12234     12236     12233     12231     12234     12237
     12234     12237     12240     12241     12234     12237     12240     12242
     12235     12234     12237     12238     12235     12234     12237     12239
     12235     12234     12237     12240     12236     12234     12237     12238
     12236     12234     12237     12239     12236     12234     12237     12240
     12237     12240     12242     12243     12237     12240     12242     12244
     12238     12237     12240     12241     12238     12237     12240     12242
     12239     12237     12240     12241     12239     12237     12240     12242
     12240     12242     12244     12245     12240     12242     12244     12246
     12240     12242     12244     12247     12241     12240     12242     12243
     12241     12240     12242     12244     12242     12244     12247     12248
     12242     12244     12247     12249     12242     12244     12247     12250
     12243     12242     12244     12245     12243     12242     12244     12246
     12243     12242     12244     12247     12244     12247     12250     12251
     12244     12247     12250     12252     12244     12247     12250     12253
     12245     12244     12247     12248     12245     12244     12247     12249
     12245     12244     12247     12250     12246     12244     12247     12248
     12246     12244     12247     12249     12246     12244     12247     12250
     12247     12250     12253     12254     12247     12250     12253     12255
     12247     12250     12253     12256     12248     12247     12250     12251
     12248     12247     12250     12252     12248     12247     12250     12253
     12249     12247     12250     12251     12249     12247     12250     12252
     12249     12247     12250     12253     12250     12253     12256     12257
     12250     12253     12256     12258     12250     12253     12256     12259
     12251     12250     12253     12254     12251     12250     12253     12255
     12251     12250     12253     12256     12252     12250     12253     12254
     12252     12250     12253     12255     12252     12250     12253     12256
     12253     12256     12259     12260     12253     12256     12259     12261
     12253     12256     12259     12262     12254     12253     12256     12257
     12254     12253     12256     12258     12254     12253     12256     12259
     12255     12253     12256     12257     12255     12253     12256     12258
     12255     12253     12256     12259     12256     12259     12262     12263
     12256     12259     12262     12264     12256     12259     12262     12265
     12257     12256     12259     12260     12257     12256     12259     12261
     12257     12256     12259     12262     12258     12256     12259     12260
     12258     12256     12259     12261     12258     12256     12259     12262
     12259     12262     12265     12266     12259     12262     12265     12267
     12259     12262     12265     12268     12260     12259     12262     12263
     12260     12259     12262     12264     12260     12259     12262     12265
     12261     12259     12262     12263     12261     12259     12262     12264
     12261     12259     12262     12265     12263     12262     12265     12266
     12263     12262     12265     12267     12263     12262     12265     12268
     12264     12262     12265     12266     12264     12262     12265     12267
     12264     12262     12265     12268     12269     12272     12275     12276
     12269     12272     12275     12277     12269     12272     12275     12278
     12270     12269     12272     12273     12270     12269     12272     12274
     12270     12269     12272     12275     12271     12269     12272     12273
     12271     12269     12272     12274     12271     12269     12272     12275
     12272     12275     12278     12279     12272     12275     12278     12280
     12272     12275     12278     12281     12273     12272     12275     12276
     12273     12272     12275     12277     12273     12272     12275     12278
     12274     12272     12275     12276     12274     12272     12275     12277
     12274     12272     12275     12278     12275     12278     12281     12282
     12275     12278     12281     12283     12275     12278     12281     12284
     12276     12275     12278     12279     12276     12275     12278     12280
     12276     12275     12278     12281     12277     12275     12278     12279
     12277     12275     12278     12280     12277     12275     12278     12281
     12278     12281     12284     12285     12278     12281     12284     12286
     12278     12281     12284     12287     12279     12278     12281     12282
     12279     12278     12281     12283     12279     12278     12281     12284
     12280     12278     12281     12282     12280     12278     12281     12283
     12280     12278     12281     12284     12281     12284     12287     12288
     12281     12284     12287     12289     12281     12284     12287     12290
     12282     12281     12284     12285     12282     12281     12284     12286
     12282     12281     12284     12287     12283     12281     12284     12285
     12283     12281     12284     12286     12283     12281     12284     12287
     12284     12287     12290     12291     12284     12287     12290     12292
     12284     12287     12290     12293     12285     12284     12287     12288
     12285     12284     12287     12289     12285     12284     12287     12290
     12286     12284     12287     12288     12286     12284     12287     12289
     12286     12284     12287     12290     12287     12290     12293     12294
     12287     12290     12293     12295     12287     12290     12293     12296
     12288     12287     12290     12291     12288     12287     12290     12292
     12288     12287     12290     12293     12289     12287     12290     12291
     12289     12287     12290     12292     12289     12287     12290     12293
     12290     12293     12296     12297     12290     12293     12296     12298
     12290     12293     12296     12299     12291     12290     12293     12294
     12291     12290     12293     12295     12291     12290     12293     12296
     12292     12290     12293     12294     12292     12290     12293     12295
     12292     12290     12293     12296     12293     12296     12299     12300
     12293     12296     12299     12301     12293     12296     12299     12302
     12294     12293     12296     12297     12294     12293     12296     12298
     12294     12293     12296     12299     12295     12293     12296     12297
     12295     12293     12296     12298     12295     12293     12296     12299
     12296     12299     12302     12303     12296     12299     12302     12304
     12296     12299     12302     12305     12297     12296     12299     12300
     12297     12296     12299     12301     12297     12296     12299     12302
     12298     12296     12299     12300     12298     12296     12299     12301
     12298     12296     12299     12302     12299     12302     12305     12306
     12299     12302     12305     12307     12299     12302     12305     12308
     12300     12299     12302     12303     12300     12299     12302     12304
     12300     12299     12302     12305     12301     12299     12302     12303
     12301     12299     12302     12304     12301     12299     12302     12305
     12302     12305     12308     12309     12302     12305     12308     12310
     12302     12305     12308     12311     12303     12302     12305     12306
     12303     12302     12305     12307     12303     12302     12305     12308
     12304     12302     12305     12306     12304     12302     12305     12307
     12304     12302     12305     12308     12306     12305     12308     12309
     12306     12305     12308     12310     12306     12305     12308     12311
     12307     12305     12308     12309     12307     12305     12308     12310
     12307     12305     12308     12311     12312     12313     12328     12329
     12312     12313     12328     12330     12312     12313     12328     12334
     12313     12312     12316     12317     12313     12312     12316     12318
     12313     12312     12316     12319     12313     12312     12320     12321
     12313     12312     12320     12322     12313     12312     12320     12323
     12313     12312     12324     12325     12313     12312     12324     12326
     12313     12312     12324     12327     12313     12328     12334     12331
     12314     12313     12312     12316     12314     12313     12312     12320
     12314     12313     12312     12324     12314     12313     12328     12329
     12314     12313     12328     12330     12314     12313     12328     12334
     12315     12313     12312     12316     12315     12313     12312     12320
     12315     12313     12312     12324     12315     12313     12328     12329
     12315     12313     12328     12330     12315     12313     12328     12334
     12316     12312     12313     12328     12316     12312     12320     12321
     12316     12312     12320     12322     12316     12312     12320     12323
     12316     12312     12324     12325     12316     12312     12324     12326
     12316     12312     12324     12327     12317     12316     12312     12320
     12317     12316     12312     12324     12318     12316     12312     12320
     12318     12316     12312     12324     12319     12316     12312     12320
     12319     12316     12312     12324     12320     12312     12313     12328
     12320     12312     12324     12325     12320     12312     12324     12326
     12320     12312     12324     12327     12321     12320     12312     12324
     12322     12320     12312     12324     12323     12320     12312     12324
     12324     12312     12313     12328     12328     12334     12331     12332
     12328     12334     12331     12333     12328     12334     12331     12335
     12329     12328     12334     12331     12330     12328     12334     12331
     12331     12335     12336     12337     12331     12335     12336     12338
     12331     12335     12336     12339     12332     12331     12335     12336
     12333     12331     12335     12336     12334     12331     12335     12336
     12335     12336     12339     12340     12335     12336     12339     12341
     12335     12336     12339     12347     12336     12339     12341     12342
     12336     12339     12347     12348     12336     12339     12347     12349
     12336     12339     12347     12350     12337     12336     12339     12340
     12337     12336     12339     12341     12337     12336     12339     12347
     12338     12336     12339     12340     12338     12336     12339     12341
     12338     12336     12339     12347     12339     12341     12342     12343
     12339     12341     12342     12344     12339     12347     12350     12351
     12340     12339     12341     12342     12340     12339     12347     12348
     12340     12339     12347     12349     12340     12339     12347     12350
     12341     12339     12347     12348     12341     12339     12347     12349
     12341     12339     12347     12350     12341     12342     12344     12345
     12341     12342     12344     12346     12341     12342     12344     12356
     12342     12341     12339     12347     12342     12344     12356     12357
     12342     12344     12356     12358     12342     12344     12356     12359
     12343     12342     12344     12345     12343     12342     12344     12346
     12343     12342     12344     12356     12344     12356     12359     12360
     12344     12356     12359     12361     12344     12356     12359     12362
     12345     12344     12356     12357     12345     12344     12356     12358
     12345     12344     12356     12359     12346     12344     12356     12357
     12346     12344     12356     12358     12346     12344     12356     12359
     12347     12350     12351     12352     12347     12350     12351     12353
     12348     12347     12350     12351     12349     12347     12350     12351
     12350     12351     12353     12354     12350     12351     12353     12355
     12350     12351     12353     12403     12351     12353     12403     12404
     12351     12353     12403     12405     12351     12353     12403     12406
     12352     12351     12353     12354     12352     12351     12353     12355
     12352     12351     12353     12403     12353     12403     12406     12407
     12353     12403     12406     12408     12353     12403     12406     12409
     12354     12353     12403     12404     12354     12353     12403     12405
     12354     12353     12403     12406     12355     12353     12403     12404
     12355     12353     12403     12405     12355     12353     12403     12406
     12356     12359     12362     12363     12356     12359     12362     12364
     12357     12356     12359     12360     12357     12356     12359     12361
     12357     12356     12359     12362     12358     12356     12359     12360
     12358     12356     12359     12361     12358     12356     12359     12362
     12359     12362     12364     12365     12359     12362     12364     12366
     12360     12359     12362     12363     12360     12359     12362     12364
     12361     12359     12362     12363     12361     12359     12362     12364
     12362     12364     12366     12367     12362     12364     12366     12368
     12362     12364     12366     12369     12363     12362     12364     12365
     12363     12362     12364     12366     12364     12366     12369     12370
     12364     12366     12369     12371     12365     12364     12366     12367
     12365     12364     12366     12368     12365     12364     12366     12369
     12366     12369     12371     12372     12366     12369     12371     12373
     12367     12366     12369     12370     12367     12366     12369     12371
     12368     12366     12369     12370     12368     12366     12369     12371
     12369     12371     12373     12374     12369     12371     12373     12375
     12369     12371     12373     12376     12370     12369     12371     12372
     12370     12369     12371     12373     12371     12373     12376     12377
     12371     12373     12376     12378     12372     12371     12373     12374
     12372     12371     12373     12375     12372     12371     12373     12376
     12373     12376     12378     12379     12373     12376     12378     12380
     12374     12373     12376     12377     12374     12373     12376     12378
     12375     12373     12376     12377     12375     12373     12376     12378
     12376     12378     12380     12381     12376     12378     12380     12382
     12376     12378     12380     12383     12377     12376     12378     12379
     12377     12376     12378     12380     12378     12380     12383     12384
     12378     12380     12383     12385     12379     12378     12380     12381
     12379     12378     12380     12382     12379     12378     12380     12383
     12380     12383     12385     12386     12380     12383     12385     12387
     12381     12380     12383     12384     12381     12380     12383     12385
     12382     12380     12383     12384     12382     12380     12383     12385
     12383     12385     12387     12388     12383     12385     12387     12389
     12383     12385     12387     12390     12384     12383     12385     12386
     12384     12383     12385     12387     12385     12387     12390     12391
     12385     12387     12390     12392     12385     12387     12390     12393
     12386     12385     12387     12388     12386     12385     12387     12389
     12386     12385     12387     12390     12387     12390     12393     12394
     12387     12390     12393     12395     12387     12390     12393     12396
     12388     12387     12390     12391     12388     12387     12390     12392
     12388     12387     12390     12393     12389     12387     12390     12391
     12389     12387     12390     12392     12389     12387     12390     12393
     12390     12393     12396     12397     12390     12393     12396     12398
     12390     12393     12396     12399     12391     12390     12393     12394
     12391     12390     12393     12395     12391     12390     12393     12396
     12392     12390     12393     12394     12392     12390     12393     12395
     12392     12390     12393     12396     12393     12396     12399     12400
     12393     12396     12399     12401     12393     12396     12399     12402
     12394     12393     12396     12397     12394     12393     12396     12398
     12394     12393     12396     12399     12395     12393     12396     12397
     12395     12393     12396     12398     12395     12393     12396     12399
     12397     12396     12399     12400     12397     12396     12399     12401
     12397     12396     12399     12402     12398     12396     12399     12400
     12398     12396     12399     12401     12398     12396     12399     12402
     12403     12406     12409     12410     12403     12406     12409     12411
     12403     12406     12409     12412     12404     12403     12406     12407
     12404     12403     12406     12408     12404     12403     12406     12409
     12405     12403     12406     12407     12405     12403     12406     12408
     12405     12403     12406     12409     12406     12409     12412     12413
     12406     12409     12412     12414     12406     12409     12412     12415
     12407     12406     12409     12410     12407     12406     12409     12411
     12407     12406     12409     12412     12408     12406     12409     12410
     12408     12406     12409     12411     12408     12406     12409     12412
     12409     12412     12415     12416     12409     12412     12415     12417
     12409     12412     12415     12418     12410     12409     12412     12413
     12410     12409     12412     12414     12410     12409     12412     12415
     12411     12409     12412     12413     12411     12409     12412     12414
     12411     12409     12412     12415     12412     12415     12418     12419
     12412     12415     12418     12420     12412     12415     12418     12421
     12413     12412     12415     12416     12413     12412     12415     12417
     12413     12412     12415     12418     12414     12412     12415     12416
     12414     12412     12415     12417     12414     12412     12415     12418
     12415     12418     12421     12422     12415     12418     12421     12423
     12415     12418     12421     12424     12416     12415     12418     12419
     12416     12415     12418     12420     12416     12415     12418     12421
     12417     12415     12418     12419     12417     12415     12418     12420
     12417     12415     12418     12421     12418     12421     12424     12425
     12418     12421     12424     12426     12418     12421     12424     12427
     12419     12418     12421     12422     12419     12418     12421     12423
     12419     12418     12421     12424     12420     12418     12421     12422
     12420     12418     12421     12423     12420     12418     12421     12424
     12421     12424     12427     12428     12421     12424     12427     12429
     12421     12424     12427     12430     12422     12421     12424     12425
     12422     12421     12424     12426     12422     12421     12424     12427
     12423     12421     12424     12425     12423     12421     12424     12426
     12423     12421     12424     12427     12424     12427     12430     12431
     12424     12427     12430     12432     12424     12427     12430     12433
     12425     12424     12427     12428     12425     12424     12427     12429
     12425     12424     12427     12430     12426     12424     12427     12428
     12426     12424     12427     12429     12426     12424     12427     12430
     12427     12430     12433     12434     12427     12430     12433     12435
     12427     12430     12433     12436     12428     12427     12430     12431
     12428     12427     12430     12432     12428     12427     12430     12433
     12429     12427     12430     12431     12429     12427     12430     12432
     12429     12427     12430     12433     12430     12433     12436     12437
     12430     12433     12436     12438     12430     12433     12436     12439
     12431     12430     12433     12434     12431     12430     12433     12435
     12431     12430     12433     12436     12432     12430     12433     12434
     12432     12430     12433     12435     12432     12430     12433     12436
     12433     12436     12439     12440     12433     12436     12439     12441
     12433     12436     12439     12442     12434     12433     12436     12437
     12434     12433     12436     12438     12434     12433     12436     12439
     12435     12433     12436     12437     12435     12433     12436     12438
     12435     12433     12436     12439     12436     12439     12442     12443
     12436     12439     12442     12444     12436     12439     12442     12445
     12437     12436     12439     12440     12437     12436     12439     12441
     12437     12436     12439     12442     12438     12436     12439     12440
     12438     12436     12439     12441     12438     12436     12439     12442
     12439     12442     12445     12446     12439     12442     12445     12447
     12439     12442     12445     12448     12440     12439     12442     12443
     12440     12439     12442     12444     12440     12439     12442     12445
     12441     12439     12442     12443     12441     12439     12442     12444
     12441     12439     12442     12445     12442     12445     12448     12449
     12442     12445     12448     12450     12442     12445     12448     12451
     12443     12442     12445     12446     12443     12442     12445     12447
     12443     12442     12445     12448     12444     12442     12445     12446
     12444     12442     12445     12447     12444     12442     12445     12448
     12446     12445     12448     12449     12446     12445     12448     12450
     12446     12445     12448     12451     12447     12445     12448     12449
     12447     12445     12448     12450     12447     12445     12448     12451
     12452     12465     12468     12469     12452     12465     12468     12470
     12452     12465     12468     12475     12453     12452     12457     12458
     12453     12452     12457     12459     12453     12452     12457     12460
     12453     12452     12461     12462     12453     12452     12461     12463
     12453     12452     12461     12464     12453     12452     12465     12466
     12453     12452     12465     12467     12453     12452     12465     12468
     12454     12453     12452     12457     12454     12453     12452     12461
     12454     12453     12452     12465     12455     12453     12452     12457
     12455     12453     12452     12461     12455     12453     12452     12465
     12456     12453     12452     12457     12456     12453     12452     12461
     12456     12453     12452     12465     12457     12452     12461     12462
     12457     12452     12461     12463     12457     12452     12461     12464
     12457     12452     12465     12466     12457     12452     12465     12467
     12457     12452     12465     12468     12458     12457     12452     12461
     12458     12457     12452     12465     12459     12457     12452     12461
     12459     12457     12452     12465     12460     12457     12452     12461
     12460     12457     12452     12465     12461     12452     12465     12466
     12461     12452     12465     12467     12461     12452     12465     12468
     12462     12461     12452     12465     12463     12461     12452     12465
     12464     12461     12452     12465     12465     12468     12475     12471
     12466     12465     12468     12469     12466     12465     12468     12470
     12466     12465     12468     12475     12467     12465     12468     12469
     12467     12465     12468     12470     12467     12465     12468     12475
     12468     12475     12471     12472     12468     12475     12471     12473
     12468     12475     12471     12474     12469     12468     12475     12471
     12470     12468     12475     12471     12471     12474     12476     12477
     12471     12474     12476     12478     12471     12474     12476     12481
     12472     12471     12474     12476     12473     12471     12474     12476
     12474     12476     12481     12479     12474     12476     12481     12482
     12474     12476     12481     12483     12475     12471     12474     12476
     12476     12481     12479     12480     12476     12481     12479     12531
     12476     12481     12483     12484     12476     12481     12483     12485
     12476     12481     12483     12487     12477     12476     12481     12479
     12477     12476     12481     12482     12477     12476     12481     12483
     12478     12476     12481     12479     12478     12476     12481     12482
     12478     12476     12481     12483     12479     12481     12483     12484
     12479     12481     12483     12485     12479     12481     12483     12487
     12479     12531     12533     12534     12479     12531     12533     12535
     12479     12531     12533     12536     12480     12479     12481     12482
     12480     12479     12481     12483     12480     12479     12531     12532
     12480     12479     12531     12533     12481     12479     12531     12532
     12481     12479     12531     12533     12481     12483     12485     12486
     12481     12483     12487     12488     12481     12483     12487     12489
     12482     12481     12479     12531     12482     12481     12483     12484
     12482     12481     12483     12485     12482     12481     12483     12487
     12483     12481     12479     12531     12483     12487     12489     12490
     12483     12487     12489     12491     12484     12483     12485     12486
     12484     12483     12487     12488     12484     12483     12487     12489
     12485     12483     12487     12488     12485     12483     12487     12489
     12486     12485     12483     12487     12487     12489     12491     12492
     12487     12489     12491     12493     12487     12489     12491     12494
     12488     12487     12489     12490     12488     12487     12489     12491
     12489     12491     12494     12495     12489     12491     12494     12496
     12489     12491     12494     12497     12490     12489     12491     12492
     12490     12489     12491     12493     12490     12489     12491     12494
     12491     12494     12497     12498     12491     12494     12497     12499
     12491     12494     12497     12500     12492     12491     12494     12495
     12492     12491     12494     12496     12492     12491     12494     12497
     12493     12491     12494     12495     12493     12491     12494     12496
     12493     12491     12494     12497     12494     12497     12500     12501
     12494     12497     12500     12502     12494     12497     12500     12503
     12495     12494     12497     12498     12495     12494     12497     12499
     12495     12494     12497     12500     12496     12494     12497     12498
     12496     12494     12497     12499     12496     12494     12497     12500
     12497     12500     12503     12504     12497     12500     12503     12505
     12497     12500     12503     12506     12498     12497     12500     12501
     12498     12497     12500     12502     12498     12497     12500     12503
     12499     12497     12500     12501     12499     12497     12500     12502
     12499     12497     12500     12503     12500     12503     12506     12507
     12500     12503     12506     12508     12500     12503     12506     12509
     12501     12500     12503     12504     12501     12500     12503     12505
     12501     12500     12503     12506     12502     12500     12503     12504
     12502     12500     12503     12505     12502     12500     12503     12506
     12503     12506     12509     12510     12503     12506     12509     12511
     12503     12506     12509     12512     12504     12503     12506     12507
     12504     12503     12506     12508     12504     12503     12506     12509
     12505     12503     12506     12507     12505     12503     12506     12508
     12505     12503     12506     12509     12506     12509     12512     12513
     12506     12509     12512     12514     12506     12509     12512     12515
     12507     12506     12509     12510     12507     12506     12509     12511
     12507     12506     12509     12512     12508     12506     12509     12510
     12508     12506     12509     12511     12508     12506     12509     12512
     12509     12512     12515     12516     12509     12512     12515     12517
     12509     12512     12515     12518     12510     12509     12512     12513
     12510     12509     12512     12514     12510     12509     12512     12515
     12511     12509     12512     12513     12511     12509     12512     12514
     12511     12509     12512     12515     12512     12515     12518     12519
     12512     12515     12518     12520     12512     12515     12518     12521
     12513     12512     12515     12516     12513     12512     12515     12517
     12513     12512     12515     12518     12514     12512     12515     12516
     12514     12512     12515     12517     12514     12512     12515     12518
     12515     12518     12521     12522     12515     12518     12521     12523
     12515     12518     12521     12524     12516     12515     12518     12519
     12516     12515     12518     12520     12516     12515     12518     12521
     12517     12515     12518     12519     12517     12515     12518     12520
     12517     12515     12518     12521     12518     12521     12524     12525
     12518     12521     12524     12526     12518     12521     12524     12527
     12519     12518     12521     12522     12519     12518     12521     12523
     12519     12518     12521     12524     12520     12518     12521     12522
     12520     12518     12521     12523     12520     12518     12521     12524
     12521     12524     12527     12528     12521     12524     12527     12529
     12521     12524     12527     12530     12522     12521     12524     12525
     12522     12521     12524     12526     12522     12521     12524     12527
     12523     12521     12524     12525     12523     12521     12524     12526
     12523     12521     12524     12527     12525     12524     12527     12528
     12525     12524     12527     12529     12525     12524     12527     12530
     12526     12524     12527     12528     12526     12524     12527     12529
     12526     12524     12527     12530     12531     12533     12536     12537
     12531     12533     12536     12538     12531     12533     12536     12539
     12532     12531     12533     12534     12532     12531     12533     12535
     12532     12531     12533     12536     12533     12536     12539     12540
     12533     12536     12539     12541     12533     12536     12539     12542
     12534     12533     12536     12537     12534     12533     12536     12538
     12534     12533     12536     12539     12535     12533     12536     12537
     12535     12533     12536     12538     12535     12533     12536     12539
     12536     12539     12542     12543     12536     12539     12542     12544
     12536     12539     12542     12545     12537     12536     12539     12540
     12537     12536     12539     12541     12537     12536     12539     12542
     12538     12536     12539     12540     12538     12536     12539     12541
     12538     12536     12539     12542     12539     12542     12545     12546
     12539     12542     12545     12547     12539     12542     12545     12548
     12540     12539     12542     12543     12540     12539     12542     12544
     12540     12539     12542     12545     12541     12539     12542     12543
     12541     12539     12542     12544     12541     12539     12542     12545
     12542     12545     12548     12549     12542     12545     12548     12550
     12542     12545     12548     12551     12543     12542     12545     12546
     12543     12542     12545     12547     12543     12542     12545     12548
     12544     12542     12545     12546     12544     12542     12545     12547
     12544     12542     12545     12548     12545     12548     12551     12552
     12545     12548     12551     12553     12545     12548     12551     12554
     12546     12545     12548     12549     12546     12545     12548     12550
     12546     12545     12548     12551     12547     12545     12548     12549
     12547     12545     12548     12550     12547     12545     12548     12551
     12548     12551     12554     12555     12548     12551     12554     12556
     12549     12548     12551     12552     12549     12548     12551     12553
     12549     12548     12551     12554     12550     12548     12551     12552
     12550     12548     12551     12553     12550     12548     12551     12554
     12551     12554     12556     12557     12551     12554     12556     12558
     12552     12551     12554     12555     12552     12551     12554     12556
     12553     12551     12554     12555     12553     12551     12554     12556
     12554     12556     12558     12559     12554     12556     12558     12560
     12554     12556     12558     12561     12555     12554     12556     12557
     12555     12554     12556     12558     12556     12558     12561     12562
     12556     12558     12561     12563     12556     12558     12561     12564
     12557     12556     12558     12559     12557     12556     12558     12560
     12557     12556     12558     12561     12558     12561     12564     12565
     12558     12561     12564     12566     12558     12561     12564     12567
     12559     12558     12561     12562     12559     12558     12561     12563
     12559     12558     12561     12564     12560     12558     12561     12562
     12560     12558     12561     12563     12560     12558     12561     12564
     12561     12564     12567     12568     12561     12564     12567     12569
     12561     12564     12567     12570     12562     12561     12564     12565
     12562     12561     12564     12566     12562     12561     12564     12567
     12563     12561     12564     12565     12563     12561     12564     12566
     12563     12561     12564     12567     12564     12567     12570     12571
     12564     12567     12570     12572     12564     12567     12570     12573
     12565     12564     12567     12568     12565     12564     12567     12569
     12565     12564     12567     12570     12566     12564     12567     12568
     12566     12564     12567     12569     12566     12564     12567     12570
     12567     12570     12573     12574     12567     12570     12573     12575
     12567     12570     12573     12576     12568     12567     12570     12571
     12568     12567     12570     12572     12568     12567     12570     12573
     12569     12567     12570     12571     12569     12567     12570     12572
     12569     12567     12570     12573     12570     12573     12576     12577
     12570     12573     12576     12578     12570     12573     12576     12579
     12571     12570     12573     12574     12571     12570     12573     12575
     12571     12570     12573     12576     12572     12570     12573     12574
     12572     12570     12573     12575     12572     12570     12573     12576
     12573     12576     12579     12580     12573     12576     12579     12581
     12573     12576     12579     12582     12574     12573     12576     12577
     12574     12573     12576     12578     12574     12573     12576     12579
     12575     12573     12576     12577     12575     12573     12576     12578
     12575     12573     12576     12579     12577     12576     12579     12580
     12577     12576     12579     12581     12577     12576     12579     12582
     12578     12576     12579     12580     12578     12576     12579     12581
     12578     12576     12579     12582     12583     12587     12589     12590
     12583     12587     12591     12592     12583     12587     12591     12593
     12583     12587     12591     12595     12583     12603     12599     12595
     12583     12603     12599     12600     12583     12603     12599     12601
     12583     12603     12608     12605     12584     12583     12585     12586
     12584     12583     12587     12588     12584     12583     12587     12589
     12584     12583     12587     12591     12584     12583     12603     12599
     12584     12583     12603     12604     12584     12583     12603     12608
     12585     12583     12587     12588     12585     12583     12587     12589
     12585     12583     12587     12591     12585     12583     12603     12599
     12585     12583     12603     12604     12585     12583     12603     12608
     12586     12585     12583     12587     12586     12585     12583     12603
     12587     12583     12603     12599     12587     12583     12603     12604
     12587     12583     12603     12608     12587     12591     12593     12594
     12587     12591     12595     12596     12587     12591     12595     12597
     12587     12591     12595     12599     12588     12587     12583     12603
     12588     12587     12589     12590     12588     12587     12591     12592
     12588     12587     12591     12593     12588     12587     12591     12595
     12589     12587     12583     12603     12589     12587     12591     12592
     12589     12587     12591     12593     12589     12587     12591     12595
     12590     12589     12587     12591     12591     12587     12583     12603
     12591     12595     12597     12598     12591     12595     12599     12600
     12591     12595     12599     12601     12591     12595     12599     12603
     12592     12591     12593     12594     12592     12591     12595     12596
     12592     12591     12595     12597     12592     12591     12595     12599
     12593     12591     12595     12596     12593     12591     12595     12597
     12593     12591     12595     12599     12594     12593     12591     12595
     12595     12599     12601     12602     12595     12599     12603     12604
     12595     12599     12603     12608     12596     12595     12597     12598
     12596     12595     12599     12600     12596     12595     12599     12601
     12596     12595     12599     12603     12597     12595     12599     12600
     12597     12595     12599     12601     12597     12595     12599     12603
     12598     12597     12595     12599     12599     12603     12608     12605
     12600     12599     12601     12602     12600     12599     12603     12604
     12600     12599     12603     12608     12601     12599     12603     12604
     12601     12599     12603     12608     12602     12601     12599     12603
     12603     12608     12605     12606     12603     12608     12605     12607
     12603     12608     12605     12609     12604     12603     12608     12605
     12605     12609     12610     12611     12605     12609     12610     12612
     12605     12609     12610     12613     12606     12605     12609     12610
     12607     12605     12609     12610     12608     12605     12609     12610
     12609     12610     12613     12614     12609     12610     12613     12615
     12609     12610     12613     12621     12610     12613     12615     12616
     12610     12613     12621     12622     12610     12613     12621     12623
     12610     12613     12621     12624     12611     12610     12613     12614
     12611     12610     12613     12615     12611     12610     12613     12621
     12612     12610     12613     12614     12612     12610     12613     12615
     12612     12610     12613     12621     12613     12615     12616     12617
     12613     12615     12616     12618     12613     12621     12624     12625
     12614     12613     12615     12616     12614     12613     12621     12622
     12614     12613     12621     12623     12614     12613     12621     12624
     12615     12613     12621     12622     12615     12613     12621     12623
     12615     12613     12621     12624     12615     12616     12618     12619
     12615     12616     12618     12620     12615     12616     12618     12630
     12616     12615     12613     12621     12616     12618     12630     12631
     12616     12618     12630     12632     12616     12618     12630     12633
     12617     12616     12618     12619     12617     12616     12618     12620
     12617     12616     12618     12630     12618     12630     12633     12634
     12618     12630     12633     12635     12618     12630     12633     12636
     12619     12618     12630     12631     12619     12618     12630     12632
     12619     12618     12630     12633     12620     12618     12630     12631
     12620     12618     12630     12632     12620     12618     12630     12633
     12621     12624     12625     12626     12621     12624     12625     12627
     12622     12621     12624     12625     12623     12621     12624     12625
     12624     12625     12627     12628     12624     12625     12627     12629
     12624     12625     12627     12677     12625     12627     12677     12678
     12625     12627     12677     12679     12625     12627     12677     12680
     12626     12625     12627     12628     12626     12625     12627     12629
     12626     12625     12627     12677     12627     12677     12680     12681
     12627     12677     12680     12682     12627     12677     12680     12683
     12628     12627     12677     12678     12628     12627     12677     12679
     12628     12627     12677     12680     12629     12627     12677     12678
     12629     12627     12677     12679     12629     12627     12677     12680
     12630     12633     12636     12637     12630     12633     12636     12638
     12631     12630     12633     12634     12631     12630     12633     12635
     12631     12630     12633     12636     12632     12630     12633     12634
     12632     12630     12633     12635     12632     12630     12633     12636
     12633     12636     12638     12639     12633     12636     12638     12640
     12634     12633     12636     12637     12634     12633     12636     12638
     12635     12633     12636     12637     12635     12633     12636     12638
     12636     12638     12640     12641     12636     12638     12640     12642
     12636     12638     12640     12643     12637     12636     12638     12639
     12637     12636     12638     12640     12638     12640     12643     12644
     12638     12640     12643     12645     12639     12638     12640     12641
     12639     12638     12640     12642     12639     12638     12640     12643
     12640     12643     12645     12646     12640     12643     12645     12647
     12641     12640     12643     12644     12641     12640     12643     12645
     12642     12640     12643     12644     12642     12640     12643     12645
     12643     12645     12647     12648     12643     12645     12647     12649
     12643     12645     12647     12650     12644     12643     12645     12646
     12644     12643     12645     12647     12645     12647     12650     12651
     12645     12647     12650     12652     12646     12645     12647     12648
     12646     12645     12647     12649     12646     12645     12647     12650
     12647     12650     12652     12653     12647     12650     12652     12654
     12648     12647     12650     12651     12648     12647     12650     12652
     12649     12647     12650     12651     12649     12647     12650     12652
     12650     12652     12654     12655     12650     12652     12654     12656
     12650     12652     12654     12657     12651     12650     12652     12653
     12651     12650     12652     12654     12652     12654     12657     12658
     12652     12654     12657     12659     12653     12652     12654     12655
     12653     12652     12654     12656     12653     12652     12654     12657
     12654     12657     12659     12660     12654     12657     12659     12661
     12655     12654     12657     12658     12655     12654     12657     12659
     12656     12654     12657     12658     12656     12654     12657     12659
     12657     12659     12661     12662     12657     12659     12661     12663
     12657     12659     12661     12664     12658     12657     12659     12660
     12658     12657     12659     12661     12659     12661     12664     12665
     12659     12661     12664     12666     12659     12661     12664     12667
     12660     12659     12661     12662     12660     12659     12661     12663
     12660     12659     12661     12664     12661     12664     12667     12668
     12661     12664     12667     12669     12661     12664     12667     12670
     12662     12661     12664     12665     12662     12661     12664     12666
     12662     12661     12664     12667     12663     12661     12664     12665
     12663     12661     12664     12666     12663     12661     12664     12667
     12664     12667     12670     12671     12664     12667     12670     12672
     12664     12667     12670     12673     12665     12664     12667     12668
     12665     12664     12667     12669     12665     12664     12667     12670
     12666     12664     12667     12668     12666     12664     12667     12669
     12666     12664     12667     12670     12667     12670     12673     12674
     12667     12670     12673     12675     12667     12670     12673     12676
     12668     12667     12670     12671     12668     12667     12670     12672
     12668     12667     12670     12673     12669     12667     12670     12671
     12669     12667     12670     12672     12669     12667     12670     12673
     12671     12670     12673     12674     12671     12670     12673     12675
     12671     12670     12673     12676     12672     12670     12673     12674
     12672     12670     12673     12675     12672     12670     12673     12676
     12677     12680     12683     12684     12677     12680     12683     12685
     12677     12680     12683     12686     12678     12677     12680     12681
     12678     12677     12680     12682     12678     12677     12680     12683
     12679     12677     12680     12681     12679     12677     12680     12682
     12679     12677     12680     12683     12680     12683     12686     12687
     12680     12683     12686     12688     12680     12683     12686     12689
     12681     12680     12683     12684     12681     12680     12683     12685
     12681     12680     12683     12686     12682     12680     12683     12684
     12682     12680     12683     12685     12682     12680     12683     12686
     12683     12686     12689     12690     12683     12686     12689     12691
     12683     12686     12689     12692     12684     12683     12686     12687
     12684     12683     12686     12688     12684     12683     12686     12689
     12685     12683     12686     12687     12685     12683     12686     12688
     12685     12683     12686     12689     12686     12689     12692     12693
     12686     12689     12692     12694     12686     12689     12692     12695
     12687     12686     12689     12690     12687     12686     12689     12691
     12687     12686     12689     12692     12688     12686     12689     12690
     12688     12686     12689     12691     12688     12686     12689     12692
     12689     12692     12695     12696     12689     12692     12695     12697
     12689     12692     12695     12698     12690     12689     12692     12693
     12690     12689     12692     12694     12690     12689     12692     12695
     12691     12689     12692     12693     12691     12689     12692     12694
     12691     12689     12692     12695     12692     12695     12698     12699
     12692     12695     12698     12700     12692     12695     12698     12701
     12693     12692     12695     12696     12693     12692     12695     12697
     12693     12692     12695     12698     12694     12692     12695     12696
     12694     12692     12695     12697     12694     12692     12695     12698
     12695     12698     12701     12702     12695     12698     12701     12703
     12695     12698     12701     12704     12696     12695     12698     12699
     12696     12695     12698     12700     12696     12695     12698     12701
     12697     12695     12698     12699     12697     12695     12698     12700
     12697     12695     12698     12701     12698     12701     12704     12705
     12698     12701     12704     12706     12698     12701     12704     12707
     12699     12698     12701     12702     12699     12698     12701     12703
     12699     12698     12701     12704     12700     12698     12701     12702
     12700     12698     12701     12703     12700     12698     12701     12704
     12701     12704     12707     12708     12701     12704     12707     12709
     12701     12704     12707     12710     12702     12701     12704     12705
     12702     12701     12704     12706     12702     12701     12704     12707
     12703     12701     12704     12705     12703     12701     12704     12706
     12703     12701     12704     12707     12704     12707     12710     12711
     12704     12707     12710     12712     12704     12707     12710     12713
     12705     12704     12707     12708     12705     12704     12707     12709
     12705     12704     12707     12710     12706     12704     12707     12708
     12706     12704     12707     12709     12706     12704     12707     12710
     12707     12710     12713     12714     12707     12710     12713     12715
     12707     12710     12713     12716     12708     12707     12710     12711
     12708     12707     12710     12712     12708     12707     12710     12713
     12709     12707     12710     12711     12709     12707     12710     12712
     12709     12707     12710     12713     12710     12713     12716     12717
     12710     12713     12716     12718     12710     12713     12716     12719
     12711     12710     12713     12714     12711     12710     12713     12715
     12711     12710     12713     12716     12712     12710     12713     12714
     12712     12710     12713     12715     12712     12710     12713     12716
     12713     12716     12719     12720     12713     12716     12719     12721
     12713     12716     12719     12722     12714     12713     12716     12717
     12714     12713     12716     12718     12714     12713     12716     12719
     12715     12713     12716     12717     12715     12713     12716     12718
     12715     12713     12716     12719     12716     12719     12722     12723
     12716     12719     12722     12724     12716     12719     12722     12725
     12717     12716     12719     12720     12717     12716     12719     12721
     12717     12716     12719     12722     12718     12716     12719     12720
     12718     12716     12719     12721     12718     12716     12719     12722
     12720     12719     12722     12723     12720     12719     12722     12724
     12720     12719     12722     12725     12721     12719     12722     12723
     12721     12719     12722     12724     12721     12719     12722     12725
     12726     12739     12742     12743     12726     12739     12742     12744
     12726     12739     12742     12749     12727     12726     12731     12732
     12727     12726     12731     12733     12727     12726     12731     12734
     12727     12726     12735     12736     12727     12726     12735     12737
     12727     12726     12735     12738     12727     12726     12739     12740
     12727     12726     12739     12741     12727     12726     12739     12742
     12728     12727     12726     12731     12728     12727     12726     12735
     12728     12727     12726     12739     12729     12727     12726     12731
     12729     12727     12726     12735     12729     12727     12726     12739
     12730     12727     12726     12731     12730     12727     12726     12735
     12730     12727     12726     12739     12731     12726     12735     12736
     12731     12726     12735     12737     12731     12726     12735     12738
     12731     12726     12739     12740     12731     12726     12739     12741
     12731     12726     12739     12742     12732     12731     12726     12735
     12732     12731     12726     12739     12733     12731     12726     12735
     12733     12731     12726     12739     12734     12731     12726     12735
     12734     12731     12726     12739     12735     12726     12739     12740
     12735     12726     12739     12741     12735     12726     12739     12742
     12736     12735     12726     12739     12737     12735     12726     12739
     12738     12735     12726     12739     12739     12742     12749     12745
     12740     12739     12742     12743     12740     12739     12742     12744
     12740     12739     12742     12749     12741     12739     12742     12743
     12741     12739     12742     12744     12741     12739     12742     12749
     12742     12749     12745     12746     12742     12749     12745     12747
     12742     12749     12745     12748     12743     12742     12749     12745
     12744     12742     12749     12745     12745     12748     12750     12751
     12745     12748     12750     12752     12745     12748     12750     12755
     12746     12745     12748     12750     12747     12745     12748     12750
     12748     12750     12755     12753     12748     12750     12755     12756
     12748     12750     12755     12757     12749     12745     12748     12750
     12750     12755     12753     12754     12750     12755     12753     12805
     12750     12755     12757     12758     12750     12755     12757     12759
     12750     12755     12757     12761     12751     12750     12755     12753
     12751     12750     12755     12756     12751     12750     12755     12757
     12752     12750     12755     12753     12752     12750     12755     12756
     12752     12750     12755     12757     12753     12755     12757     12758
     12753     12755     12757     12759     12753     12755     12757     12761
     12753     12805     12807     12808     12753     12805     12807     12809
     12753     12805     12807     12810     12754     12753     12755     12756
     12754     12753     12755     12757     12754     12753     12805     12806
     12754     12753     12805     12807     12755     12753     12805     12806
     12755     12753     12805     12807     12755     12757     12759     12760
     12755     12757     12761     12762     12755     12757     12761     12763
     12756     12755     12753     12805     12756     12755     12757     12758
     12756     12755     12757     12759     12756     12755     12757     12761
     12757     12755     12753     12805     12757     12761     12763     12764
     12757     12761     12763     12765     12758     12757     12759     12760
     12758     12757     12761     12762     12758     12757     12761     12763
     12759     12757     12761     12762     12759     12757     12761     12763
     12760     12759     12757     12761     12761     12763     12765     12766
     12761     12763     12765     12767     12761     12763     12765     12768
     12762     12761     12763     12764     12762     12761     12763     12765
     12763     12765     12768     12769     12763     12765     12768     12770
     12763     12765     12768     12771     12764     12763     12765     12766
     12764     12763     12765     12767     12764     12763     12765     12768
     12765     12768     12771     12772     12765     12768     12771     12773
     12765     12768     12771     12774     12766     12765     12768     12769
     12766     12765     12768     12770     12766     12765     12768     12771
     12767     12765     12768     12769     12767     12765     12768     12770
     12767     12765     12768     12771     12768     12771     12774     12775
     12768     12771     12774     12776     12768     12771     12774     12777
     12769     12768     12771     12772     12769     12768     12771     12773
     12769     12768     12771     12774     12770     12768     12771     12772
     12770     12768     12771     12773     12770     12768     12771     12774
     12771     12774     12777     12778     12771     12774     12777     12779
     12771     12774     12777     12780     12772     12771     12774     12775
     12772     12771     12774     12776     12772     12771     12774     12777
     12773     12771     12774     12775     12773     12771     12774     12776
     12773     12771     12774     12777     12774     12777     12780     12781
     12774     12777     12780     12782     12774     12777     12780     12783
     12775     12774     12777     12778     12775     12774     12777     12779
     12775     12774     12777     12780     12776     12774     12777     12778
     12776     12774     12777     12779     12776     12774     12777     12780
     12777     12780     12783     12784     12777     12780     12783     12785
     12777     12780     12783     12786     12778     12777     12780     12781
     12778     12777     12780     12782     12778     12777     12780     12783
     12779     12777     12780     12781     12779     12777     12780     12782
     12779     12777     12780     12783     12780     12783     12786     12787
     12780     12783     12786     12788     12780     12783     12786     12789
     12781     12780     12783     12784     12781     12780     12783     12785
     12781     12780     12783     12786     12782     12780     12783     12784
     12782     12780     12783     12785     12782     12780     12783     12786
     12783     12786     12789     12790     12783     12786     12789     12791
     12783     12786     12789     12792     12784     12783     12786     12787
     12784     12783     12786     12788     12784     12783     12786     12789
     12785     12783     12786     12787     12785     12783     12786     12788
     12785     12783     12786     12789     12786     12789     12792     12793
     12786     12789     12792     12794     12786     12789     12792     12795
     12787     12786     12789     12790     12787     12786     12789     12791
     12787     12786     12789     12792     12788     12786     12789     12790
     12788     12786     12789     12791     12788     12786     12789     12792
     12789     12792     12795     12796     12789     12792     12795     12797
     12789     12792     12795     12798     12790     12789     12792     12793
     12790     12789     12792     12794     12790     12789     12792     12795
     12791     12789     12792     12793     12791     12789     12792     12794
     12791     12789     12792     12795     12792     12795     12798     12799
     12792     12795     12798     12800     12792     12795     12798     12801
     12793     12792     12795     12796     12793     12792     12795     12797
     12793     12792     12795     12798     12794     12792     12795     12796
     12794     12792     12795     12797     12794     12792     12795     12798
     12795     12798     12801     12802     12795     12798     12801     12803
     12795     12798     12801     12804     12796     12795     12798     12799
     12796     12795     12798     12800     12796     12795     12798     12801
     12797     12795     12798     12799     12797     12795     12798     12800
     12797     12795     12798     12801     12799     12798     12801     12802
     12799     12798     12801     12803     12799     12798     12801     12804
     12800     12798     12801     12802     12800     12798     12801     12803
     12800     12798     12801     12804     12805     12807     12810     12811
     12805     12807     12810     12812     12805     12807     12810     12813
     12806     12805     12807     12808     12806     12805     12807     12809
     12806     12805     12807     12810     12807     12810     12813     12814
     12807     12810     12813     12815     12807     12810     12813     12816
     12808     12807     12810     12811     12808     12807     12810     12812
     12808     12807     12810     12813     12809     12807     12810     12811
     12809     12807     12810     12812     12809     12807     12810     12813
     12810     12813     12816     12817     12810     12813     12816     12818
     12810     12813     12816     12819     12811     12810     12813     12814
     12811     12810     12813     12815     12811     12810     12813     12816
     12812     12810     12813     12814     12812     12810     12813     12815
     12812     12810     12813     12816     12813     12816     12819     12820
     12813     12816     12819     12821     12813     12816     12819     12822
     12814     12813     12816     12817     12814     12813     12816     12818
     12814     12813     12816     12819     12815     12813     12816     12817
     12815     12813     12816     12818     12815     12813     12816     12819
     12816     12819     12822     12823     12816     12819     12822     12824
     12816     12819     12822     12825     12817     12816     12819     12820
     12817     12816     12819     12821     12817     12816     12819     12822
     12818     12816     12819     12820     12818     12816     12819     12821
     12818     12816     12819     12822     12819     12822     12825     12826
     12819     12822     12825     12827     12819     12822     12825     12828
     12820     12819     12822     12823     12820     12819     12822     12824
     12820     12819     12822     12825     12821     12819     12822     12823
     12821     12819     12822     12824     12821     12819     12822     12825
     12822     12825     12828     12829     12822     12825     12828     12830
     12823     12822     12825     12826     12823     12822     12825     12827
     12823     12822     12825     12828     12824     12822     12825     12826
     12824     12822     12825     12827     12824     12822     12825     12828
     12825     12828     12830     12831     12825     12828     12830     12832
     12826     12825     12828     12829     12826     12825     12828     12830
     12827     12825     12828     12829     12827     12825     12828     12830
     12828     12830     12832     12833     12828     12830     12832     12834
     12828     12830     12832     12835     12829     12828     12830     12831
     12829     12828     12830     12832     12830     12832     12835     12836
     12830     12832     12835     12837     12830     12832     12835     12838
     12831     12830     12832     12833     12831     12830     12832     12834
     12831     12830     12832     12835     12832     12835     12838     12839
     12832     12835     12838     12840     12832     12835     12838     12841
     12833     12832     12835     12836     12833     12832     12835     12837
     12833     12832     12835     12838     12834     12832     12835     12836
     12834     12832     12835     12837     12834     12832     12835     12838
     12835     12838     12841     12842     12835     12838     12841     12843
     12835     12838     12841     12844     12836     12835     12838     12839
     12836     12835     12838     12840     12836     12835     12838     12841
     12837     12835     12838     12839     12837     12835     12838     12840
     12837     12835     12838     12841     12838     12841     12844     12845
     12838     12841     12844     12846     12838     12841     12844     12847
     12839     12838     12841     12842     12839     12838     12841     12843
     12839     12838     12841     12844     12840     12838     12841     12842
     12840     12838     12841     12843     12840     12838     12841     12844
     12841     12844     12847     12848     12841     12844     12847     12849
     12841     12844     12847     12850     12842     12841     12844     12845
     12842     12841     12844     12846     12842     12841     12844     12847
     12843     12841     12844     12845     12843     12841     12844     12846
     12843     12841     12844     12847     12844     12847     12850     12851
     12844     12847     12850     12852     12844     12847     12850     12853
     12845     12844     12847     12848     12845     12844     12847     12849
     12845     12844     12847     12850     12846     12844     12847     12848
     12846     12844     12847     12849     12846     12844     12847     12850
     12847     12850     12853     12854     12847     12850     12853     12855
     12847     12850     12853     12856     12848     12847     12850     12851
     12848     12847     12850     12852     12848     12847     12850     12853
     12849     12847     12850     12851     12849     12847     12850     12852
     12849     12847     12850     12853     12851     12850     12853     12854
     12851     12850     12853     12855     12851     12850     12853     12856
     12852     12850     12853     12854     12852     12850     12853     12855
     12852     12850     12853     12856     12857     12858     12873     12874
     12857     12858     12873     12875     12857     12858     12873     12879
     12858     12857     12861     12862     12858     12857     12861     12863
     12858     12857     12861     12864     12858     12857     12865     12866
     12858     12857     12865     12867     12858     12857     12865     12868
     12858     12857     12869     12870     12858     12857     12869     12871
     12858     12857     12869     12872     12858     12873     12879     12876
     12859     12858     12857     12861     12859     12858     12857     12865
     12859     12858     12857     12869     12859     12858     12873     12874
     12859     12858     12873     12875     12859     12858     12873     12879
     12860     12858     12857     12861     12860     12858     12857     12865
     12860     12858     12857     12869     12860     12858     12873     12874
     12860     12858     12873     12875     12860     12858     12873     12879
     12861     12857     12858     12873     12861     12857     12865     12866
     12861     12857     12865     12867     12861     12857     12865     12868
     12861     12857     12869     12870     12861     12857     12869     12871
     12861     12857     12869     12872     12862     12861     12857     12865
     12862     12861     12857     12869     12863     12861     12857     12865
     12863     12861     12857     12869     12864     12861     12857     12865
     12864     12861     12857     12869     12865     12857     12858     12873
     12865     12857     12869     12870     12865     12857     12869     12871
     12865     12857     12869     12872     12866     12865     12857     12869
     12867     12865     12857     12869     12868     12865     12857     12869
     12869     12857     12858     12873     12873     12879     12876     12877
     12873     12879     12876     12878     12873     12879     12876     12880
     12874     12873     12879     12876     12875     12873     12879     12876
     12876     12880     12881     12882     12876     12880     12881     12883
     12876     12880     12881     12884     12877     12876     12880     12881
     12878     12876     12880     12881     12879     12876     12880     12881
     12880     12881     12884     12885     12880     12881     12884     12886
     12880     12881     12884     12892     12881     12884     12886     12887
     12881     12884     12892     12893     12881     12884     12892     12894
     12881     12884     12892     12895     12882     12881     12884     12885
     12882     12881     12884     12886     12882     12881     12884     12892
     12883     12881     12884     12885     12883     12881     12884     12886
     12883     12881     12884     12892     12884     12886     12887     12888
     12884     12886     12887     12889     12884     12892     12895     12896
     12885     12884     12886     12887     12885     12884     12892     12893
     12885     12884     12892     12894     12885     12884     12892     12895
     12886     12884     12892     12893     12886     12884     12892     12894
     12886     12884     12892     12895     12886     12887     12889     12890
     12886     12887     12889     12891     12886     12887     12889     12901
     12887     12886     12884     12892     12887     12889     12901     12902
     12887     12889     12901     12903     12887     12889     12901     12904
     12888     12887     12889     12890     12888     12887     12889     12891
     12888     12887     12889     12901     12889     12901     12904     12905
     12889     12901     12904     12906     12889     12901     12904     12907
     12890     12889     12901     12902     12890     12889     12901     12903
     12890     12889     12901     12904     12891     12889     12901     12902
     12891     12889     12901     12903     12891     12889     12901     12904
     12892     12895     12896     12897     12892     12895     12896     12898
     12893     12892     12895     12896     12894     12892     12895     12896
     12895     12896     12898     12899     12895     12896     12898     12900
     12895     12896     12898     12948     12896     12898     12948     12949
     12896     12898     12948     12950     12896     12898     12948     12951
     12897     12896     12898     12899     12897     12896     12898     12900
     12897     12896     12898     12948     12898     12948     12951     12952
     12898     12948     12951     12953     12898     12948     12951     12954
     12899     12898     12948     12949     12899     12898     12948     12950
     12899     12898     12948     12951     12900     12898     12948     12949
     12900     12898     12948     12950     12900     12898     12948     12951
     12901     12904     12907     12908     12901     12904     12907     12909
     12901     12904     12907     12910     12902     12901     12904     12905
     12902     12901     12904     12906     12902     12901     12904     12907
     12903     12901     12904     12905     12903     12901     12904     12906
     12903     12901     12904     12907     12904     12907     12910     12911
     12904     12907     12910     12912     12904     12907     12910     12913
     12905     12904     12907     12908     12905     12904     12907     12909
     12905     12904     12907     12910     12906     12904     12907     12908
     12906     12904     12907     12909     12906     12904     12907     12910
     12907     12910     12913     12914     12907     12910     12913     12915
     12907     12910     12913     12916     12908     12907     12910     12911
     12908     12907     12910     12912     12908     12907     12910     12913
     12909     12907     12910     12911     12909     12907     12910     12912
     12909     12907     12910     12913     12910     12913     12916     12917
     12910     12913     12916     12918     12910     12913     12916     12919
     12911     12910     12913     12914     12911     12910     12913     12915
     12911     12910     12913     12916     12912     12910     12913     12914
     12912     12910     12913     12915     12912     12910     12913     12916
     12913     12916     12919     12920     12913     12916     12919     12921
     12914     12913     12916     12917     12914     12913     12916     12918
     12914     12913     12916     12919     12915     12913     12916     12917
     12915     12913     12916     12918     12915     12913     12916     12919
     12916     12919     12921     12922     12916     12919     12921     12923
     12917     12916     12919     12920     12917     12916     12919     12921
     12918     12916     12919     12920     12918     12916     12919     12921
     12919     12921     12923     12924     12919     12921     12923     12925
     12919     12921     12923     12926     12920     12919     12921     12922
     12920     12919     12921     12923     12921     12923     12926     12927
     12921     12923     12926     12928     12921     12923     12926     12929
     12922     12921     12923     12924     12922     12921     12923     12925
     12922     12921     12923     12926     12923     12926     12929     12930
     12923     12926     12929     12931     12923     12926     12929     12932
     12924     12923     12926     12927     12924     12923     12926     12928
     12924     12923     12926     12929     12925     12923     12926     12927
     12925     12923     12926     12928     12925     12923     12926     12929
     12926     12929     12932     12933     12926     12929     12932     12934
     12926     12929     12932     12935     12927     12926     12929     12930
     12927     12926     12929     12931     12927     12926     12929     12932
     12928     12926     12929     12930     12928     12926     12929     12931
     12928     12926     12929     12932     12929     12932     12935     12936
     12929     12932     12935     12937     12929     12932     12935     12938
     12930     12929     12932     12933     12930     12929     12932     12934
     12930     12929     12932     12935     12931     12929     12932     12933
     12931     12929     12932     12934     12931     12929     12932     12935
     12932     12935     12938     12939     12932     12935     12938     12940
     12932     12935     12938     12941     12933     12932     12935     12936
     12933     12932     12935     12937     12933     12932     12935     12938
     12934     12932     12935     12936     12934     12932     12935     12937
     12934     12932     12935     12938     12935     12938     12941     12942
     12935     12938     12941     12943     12935     12938     12941     12944
     12936     12935     12938     12939     12936     12935     12938     12940
     12936     12935     12938     12941     12937     12935     12938     12939
     12937     12935     12938     12940     12937     12935     12938     12941
     12938     12941     12944     12945     12938     12941     12944     12946
     12938     12941     12944     12947     12939     12938     12941     12942
     12939     12938     12941     12943     12939     12938     12941     12944
     12940     12938     12941     12942     12940     12938     12941     12943
     12940     12938     12941     12944     12942     12941     12944     12945
     12942     12941     12944     12946     12942     12941     12944     12947
     12943     12941     12944     12945     12943     12941     12944     12946
     12943     12941     12944     12947     12948     12951     12954     12955
     12948     12951     12954     12956     12948     12951     12954     12957
     12949     12948     12951     12952     12949     12948     12951     12953
     12949     12948     12951     12954     12950     12948     12951     12952
     12950     12948     12951     12953     12950     12948     12951     12954
     12951     12954     12957     12958     12951     12954     12957     12959
     12951     12954     12957     12960     12952     12951     12954     12955
     12952     12951     12954     12956     12952     12951     12954     12957
     12953     12951     12954     12955     12953     12951     12954     12956
     12953     12951     12954     12957     12954     12957     12960     12961
     12954     12957     12960     12962     12954     12957     12960     12963
     12955     12954     12957     12958     12955     12954     12957     12959
     12955     12954     12957     12960     12956     12954     12957     12958
     12956     12954     12957     12959     12956     12954     12957     12960
     12957     12960     12963     12964     12957     12960     12963     12965
     12957     12960     12963     12966     12958     12957     12960     12961
     12958     12957     12960     12962     12958     12957     12960     12963
     12959     12957     12960     12961     12959     12957     12960     12962
     12959     12957     12960     12963     12960     12963     12966     12967
     12960     12963     12966     12968     12960     12963     12966     12969
     12961     12960     12963     12964     12961     12960     12963     12965
     12961     12960     12963     12966     12962     12960     12963     12964
     12962     12960     12963     12965     12962     12960     12963     12966
     12963     12966     12969     12970     12963     12966     12969     12971
     12963     12966     12969     12972     12964     12963     12966     12967
     12964     12963     12966     12968     12964     12963     12966     12969
     12965     12963     12966     12967     12965     12963     12966     12968
     12965     12963     12966     12969     12966     12969     12972     12973
     12966     12969     12972     12974     12966     12969     12972     12975
     12967     12966     12969     12970     12967     12966     12969     12971
     12967     12966     12969     12972     12968     12966     12969     12970
     12968     12966     12969     12971     12968     12966     12969     12972
     12969     12972     12975     12976     12969     12972     12975     12977
     12969     12972     12975     12978     12970     12969     12972     12973
     12970     12969     12972     12974     12970     12969     12972     12975
     12971     12969     12972     12973     12971     12969     12972     12974
     12971     12969     12972     12975     12972     12975     12978     12979
     12972     12975     12978     12980     12972     12975     12978     12981
     12973     12972     12975     12976     12973     12972     12975     12977
     12973     12972     12975     12978     12974     12972     12975     12976
     12974     12972     12975     12977     12974     12972     12975     12978
     12975     12978     12981     12982     12975     12978     12981     12983
     12975     12978     12981     12984     12976     12975     12978     12979
     12976     12975     12978     12980     12976     12975     12978     12981
     12977     12975     12978     12979     12977     12975     12978     12980
     12977     12975     12978     12981     12978     12981     12984     12985
     12978     12981     12984     12986     12978     12981     12984     12987
     12979     12978     12981     12982     12979     12978     12981     12983
     12979     12978     12981     12984     12980     12978     12981     12982
     12980     12978     12981     12983     12980     12978     12981     12984
     12981     12984     12987     12988     12981     12984     12987     12989
     12981     12984     12987     12990     12982     12981     12984     12985
     12982     12981     12984     12986     12982     12981     12984     12987
     12983     12981     12984     12985     12983     12981     12984     12986
     12983     12981     12984     12987     12985     12984     12987     12988
     12985     12984     12987     12989     12985     12984     12987     12990
     12986     12984     12987     12988     12986     12984     12987     12989
     12986     12984     12987     12990     12991     12992     13007     13008
     12991     12992     13007     13009     12991     12992     13007     13013
     12992     12991     12995     12996     12992     12991     12995     12997
     12992     12991     12995     12998     12992     12991     12999     13000
     12992     12991     12999     13001     12992     12991     12999     13002
     12992     12991     13003     13004     12992     12991     13003     13005
     12992     12991     13003     13006     12992     13007     13013     13010
     12993     12992     12991     12995     12993     12992     12991     12999
     12993     12992     12991     13003     12993     12992     13007     13008
     12993     12992     13007     13009     12993     12992     13007     13013
     12994     12992     12991     12995     12994     12992     12991     12999
     12994     12992     12991     13003     12994     12992     13007     13008
     12994     12992     13007     13009     12994     12992     13007     13013
     12995     12991     12992     13007     12995     12991     12999     13000
     12995     12991     12999     13001     12995     12991     12999     13002
     12995     12991     13003     13004     12995     12991     13003     13005
     12995     12991     13003     13006     12996     12995     12991     12999
     12996     12995     12991     13003     12997     12995     12991     12999
     12997     12995     12991     13003     12998     12995     12991     12999
     12998     12995     12991     13003     12999     12991     12992     13007
     12999     12991     13003     13004     12999     12991     13003     13005
     12999     12991     13003     13006     13000     12999     12991     13003
     13001     12999     12991     13003     13002     12999     12991     13003
     13003     12991     12992     13007     13007     13013     13010     13011
     13007     13013     13010     13012     13007     13013     13010     13014
     13008     13007     13013     13010     13009     13007     13013     13010
     13010     13014     13015     13016     13010     13014     13015     13017
     13010     13014     13015     13018     13011     13010     13014     13015
     13012     13010     13014     13015     13013     13010     13014     13015
     13014     13015     13018     13019     13014     13015     13018     13020
     13014     13015     13018     13026     13015     13018     13020     13021
     13015     13018     13026     13027     13015     13018     13026     13028
     13015     13018     13026     13029     13016     13015     13018     13019
     13016     13015     13018     13020     13016     13015     13018     13026
     13017     13015     13018     13019     13017     13015     13018     13020
     13017     13015     13018     13026     13018     13020     13021     13022
     13018     13020     13021     13023     13018     13026     13029     13030
     13019     13018     13020     13021     13019     13018     13026     13027
     13019     13018     13026     13028     13019     13018     13026     13029
     13020     13018     13026     13027     13020     13018     13026     13028
     13020     13018     13026     13029     13020     13021     13023     13024
     13020     13021     13023     13025     13020     13021     13023     13035
     13021     13020     13018     13026     13021     13023     13035     13036
     13021     13023     13035     13037     13021     13023     13035     13038
     13022     13021     13023     13024     13022     13021     13023     13025
     13022     13021     13023     13035     13023     13035     13038     13039
     13023     13035     13038     13040     13023     13035     13038     13041
     13024     13023     13035     13036     13024     13023     13035     13037
     13024     13023     13035     13038     13025     13023     13035     13036
     13025     13023     13035     13037     13025     13023     13035     13038
     13026     13029     13030     13031     13026     13029     13030     13032
     13027     13026     13029     13030     13028     13026     13029     13030
     13029     13030     13032     13033     13029     13030     13032     13034
     13029     13030     13032     13082     13030     13032     13082     13083
     13030     13032     13082     13084     13030     13032     13082     13085
     13031     13030     13032     13033     13031     13030     13032     13034
     13031     13030     13032     13082     13032     13082     13085     13086
     13032     13082     13085     13087     13032     13082     13085     13088
     13033     13032     13082     13083     13033     13032     13082     13084
     13033     13032     13082     13085     13034     13032     13082     13083
     13034     13032     13082     13084     13034     13032     13082     13085
     13035     13038     13041     13042     13035     13038     13041     13043
     13036     13035     13038     13039     13036     13035     13038     13040
     13036     13035     13038     13041     13037     13035     13038     13039
     13037     13035     13038     13040     13037     13035     13038     13041
     13038     13041     13043     13044     13038     13041     13043     13045
     13039     13038     13041     13042     13039     13038     13041     13043
     13040     13038     13041     13042     13040     13038     13041     13043
     13041     13043     13045     13046     13041     13043     13045     13047
     13041     13043     13045     13048     13042     13041     13043     13044
     13042     13041     13043     13045     13043     13045     13048     13049
     13043     13045     13048     13050     13044     13043     13045     13046
     13044     13043     13045     13047     13044     13043     13045     13048
     13045     13048     13050     13051     13045     13048     13050     13052
     13046     13045     13048     13049     13046     13045     13048     13050
     13047     13045     13048     13049     13047     13045     13048     13050
     13048     13050     13052     13053     13048     13050     13052     13054
     13048     13050     13052     13055     13049     13048     13050     13051
     13049     13048     13050     13052     13050     13052     13055     13056
     13050     13052     13055     13057     13051     13050     13052     13053
     13051     13050     13052     13054     13051     13050     13052     13055
     13052     13055     13057     13058     13052     13055     13057     13059
     13053     13052     13055     13056     13053     13052     13055     13057
     13054     13052     13055     13056     13054     13052     13055     13057
     13055     13057     13059     13060     13055     13057     13059     13061
     13055     13057     13059     13062     13056     13055     13057     13058
     13056     13055     13057     13059     13057     13059     13062     13063
     13057     13059     13062     13064     13058     13057     13059     13060
     13058     13057     13059     13061     13058     13057     13059     13062
     13059     13062     13064     13065     13059     13062     13064     13066
     13060     13059     13062     13063     13060     13059     13062     13064
     13061     13059     13062     13063     13061     13059     13062     13064
     13062     13064     13066     13067     13062     13064     13066     13068
     13062     13064     13066     13069     13063     13062     13064     13065
     13063     13062     13064     13066     13064     13066     13069     13070
     13064     13066     13069     13071     13064     13066     13069     13072
     13065     13064     13066     13067     13065     13064     13066     13068
     13065     13064     13066     13069     13066     13069     13072     13073
     13066     13069     13072     13074     13066     13069     13072     13075
     13067     13066     13069     13070     13067     13066     13069     13071
     13067     13066     13069     13072     13068     13066     13069     13070
     13068     13066     13069     13071     13068     13066     13069     13072
     13069     13072     13075     13076     13069     13072     13075     13077
     13069     13072     13075     13078     13070     13069     13072     13073
     13070     13069     13072     13074     13070     13069     13072     13075
     13071     13069     13072     13073     13071     13069     13072     13074
     13071     13069     13072     13075     13072     13075     13078     13079
     13072     13075     13078     13080     13072     13075     13078     13081
     13073     13072     13075     13076     13073     13072     13075     13077
     13073     13072     13075     13078     13074     13072     13075     13076
     13074     13072     13075     13077     13074     13072     13075     13078
     13076     13075     13078     13079     13076     13075     13078     13080
     13076     13075     13078     13081     13077     13075     13078     13079
     13077     13075     13078     13080     13077     13075     13078     13081
     13082     13085     13088     13089     13082     13085     13088     13090
     13082     13085     13088     13091     13083     13082     13085     13086
     13083     13082     13085     13087     13083     13082     13085     13088
     13084     13082     13085     13086     13084     13082     13085     13087
     13084     13082     13085     13088     13085     13088     13091     13092
     13085     13088     13091     13093     13085     13088     13091     13094
     13086     13085     13088     13089     13086     13085     13088     13090
     13086     13085     13088     13091     13087     13085     13088     13089
     13087     13085     13088     13090     13087     13085     13088     13091
     13088     13091     13094     13095     13088     13091     13094     13096
     13088     13091     13094     13097     13089     13088     13091     13092
     13089     13088     13091     13093     13089     13088     13091     13094
     13090     13088     13091     13092     13090     13088     13091     13093
     13090     13088     13091     13094     13091     13094     13097     13098
     13091     13094     13097     13099     13091     13094     13097     13100
     13092     13091     13094     13095     13092     13091     13094     13096
     13092     13091     13094     13097     13093     13091     13094     13095
     13093     13091     13094     13096     13093     13091     13094     13097
     13094     13097     13100     13101     13094     13097     13100     13102
     13094     13097     13100     13103     13095     13094     13097     13098
     13095     13094     13097     13099     13095     13094     13097     13100
     13096     13094     13097     13098     13096     13094     13097     13099
     13096     13094     13097     13100     13097     13100     13103     13104
     13097     13100     13103     13105     13097     13100     13103     13106
     13098     13097     13100     13101     13098     13097     13100     13102
     13098     13097     13100     13103     13099     13097     13100     13101
     13099     13097     13100     13102     13099     13097     13100     13103
     13100     13103     13106     13107     13100     13103     13106     13108
     13100     13103     13106     13109     13101     13100     13103     13104
     13101     13100     13103     13105     13101     13100     13103     13106
     13102     13100     13103     13104     13102     13100     13103     13105
     13102     13100     13103     13106     13103     13106     13109     13110
     13103     13106     13109     13111     13103     13106     13109     13112
     13104     13103     13106     13107     13104     13103     13106     13108
     13104     13103     13106     13109     13105     13103     13106     13107
     13105     13103     13106     13108     13105     13103     13106     13109
     13106     13109     13112     13113     13106     13109     13112     13114
     13106     13109     13112     13115     13107     13106     13109     13110
     13107     13106     13109     13111     13107     13106     13109     13112
     13108     13106     13109     13110     13108     13106     13109     13111
     13108     13106     13109     13112     13109     13112     13115     13116
     13109     13112     13115     13117     13109     13112     13115     13118
     13110     13109     13112     13113     13110     13109     13112     13114
     13110     13109     13112     13115     13111     13109     13112     13113
     13111     13109     13112     13114     13111     13109     13112     13115
     13112     13115     13118     13119     13112     13115     13118     13120
     13112     13115     13118     13121     13113     13112     13115     13116
     13113     13112     13115     13117     13113     13112     13115     13118
     13114     13112     13115     13116     13114     13112     13115     13117
     13114     13112     13115     13118     13115     13118     13121     13122
     13115     13118     13121     13123     13115     13118     13121     13124
     13116     13115     13118     13119     13116     13115     13118     13120
     13116     13115     13118     13121     13117     13115     13118     13119
     13117     13115     13118     13120     13117     13115     13118     13121
     13118     13121     13124     13125     13118     13121     13124     13126
     13118     13121     13124     13127     13119     13118     13121     13122
     13119     13118     13121     13123     13119     13118     13121     13124
     13120     13118     13121     13122     13120     13118     13121     13123
     13120     13118     13121     13124     13121     13124     13127     13128
     13121     13124     13127     13129     13121     13124     13127     13130
     13122     13121     13124     13125     13122     13121     13124     13126
     13122     13121     13124     13127     13123     13121     13124     13125
     13123     13121     13124     13126     13123     13121     13124     13127
     13125     13124     13127     13128     13125     13124     13127     13129
     13125     13124     13127     13130     13126     13124     13127     13128
     13126     13124     13127     13129     13126     13124     13127     13130
     13131     13135     13138     13139     13131     13135     13138     13169
     13131     13177     13174     13169     13131     13177     13174     13175
     13131     13177     13174     13176     13132     13131     13133     13134
     13132     13131     13135     13136     13132     13131     13135     13137
     13132     13131     13135     13138     13132     13131     13177     13174
     13132     13131     13177     13178     13132     13131     13177     13179
     13133     13131     13135     13136     13133     13131     13135     13137
     13133     13131     13135     13138     13133     13131     13177     13174
     13133     13131     13177     13178     13133     13131     13177     13179
     13134     13133     13131     13135     13134     13133     13131     13177
     13135     13131     13177     13174     13135     13131     13177     13178
     13135     13131     13177     13179     13135     13138     13139     13140
     13135     13138     13139     13141     13135     13138     13169     13167
     13135     13138     13169     13170     13135     13138     13169     13174
     13136     13135     13131     13177     13136     13135     13138     13139
     13136     13135     13138     13169     13137     13135     13131     13177
     13137     13135     13138     13139     13137     13135     13138     13169
     13138     13135     13131     13177     13138     13139     13141     13142
     13138     13139     13141     13143     13138     13139     13141     13144
     13138     13169     13167     13144     13138     13169     13167     13164
     13138     13169     13167     13168     13138     13169     13170     13171
     13138     13169     13170     13172     13138     13169     13170     13173
     13138     13169     13174     13175     13138     13169     13174     13176
     13138     13169     13174     13177     13139     13138     13169     13167
     13139     13138     13169     13170     13139     13138     13169     13174
     13139     13141     13144     13145     13139     13141     13144     13146
     13139     13141     13144     13167     13140     13139     13138     13169
     13140     13139     13141     13142     13140     13139     13141     13143
     13140     13139     13141     13144     13141     13139     13138     13169
     13141     13144     13146     13147     13141     13144     13146     13148
     13141     13144     13146     13156     13141     13144     13167     13164
     13141     13144     13167     13168     13141     13144     13167     13169
     13142     13141     13144     13145     13142     13141     13144     13146
     13142     13141     13144     13167     13143     13141     13144     13145
     13143     13141     13144     13146     13143     13141     13144     13167
     13144     13146     13148     13149     13144     13146     13148     13150
     13144     13146     13148     13151     13144     13146     13156     13154
     13144     13146     13156     13157     13144     13146     13156     13161
     13144     13167     13164     13161     13144     13167     13164     13165
     13144     13167     13164     13166     13144     13167     13169     13170
     13144     13167     13169     13174     13145     13144     13146     13147
     13145     13144     13146     13148     13145     13144     13146     13156
     13145     13144     13167     13164     13145     13144     13167     13168
     13145     13144     13167     13169     13146     13144     13167     13164
     13146     13144     13167     13168     13146     13144     13167     13169
     13146     13148     13151     13152     13146     13148     13151     13153
     13146     13148     13151     13154     13146     13156     13154     13151
     13146     13156     13154     13155     13146     13156     13154     13180
     13146     13156     13157     13158     13146     13156     13157     13159
     13146     13156     13157     13160     13146     13156     13161     13162
     13146     13156     13161     13163     13146     13156     13161     13164
     13147     13146     13144     13167     13147     13146     13148     13149
     13147     13146     13148     13150     13147     13146     13148     13151
     13147     13146     13156     13154     13147     13146     13156     13157
     13147     13146     13156     13161     13148     13146     13144     13167
     13148     13146     13156     13154     13148     13146     13156     13157
     13148     13146     13156     13161     13148     13151     13154     13155
     13148     13151     13154     13156     13148     13151     13154     13180
     13149     13148     13146     13156     13149     13148     13151     13152
     13149     13148     13151     13153     13149     13148     13151     13154
     13150     13148     13146     13156     13150     13148     13151     13152
     13150     13148     13151     13153     13150     13148     13151     13154
     13151     13148     13146     13156     13151     13154     13156     13157
     13151     13154     13156     13161     13151     13154     13180     13181
     13151     13154     13180     13182     13151     13154     13180     13186
     13152     13151     13154     13155     13152     13151     13154     13156
     13152     13151     13154     13180     13153     13151     13154     13155
     13153     13151     13154     13156     13153     13151     13154     13180
     13154     13156     13157     13158     13154     13156     13157     13159
     13154     13156     13157     13160     13154     13156     13161     13162
     13154     13156     13161     13163     13154     13156     13161     13164
     13154     13180     13182     13183     13154     13180     13182     13184
     13154     13180     13182     13185     13154     13180     13186     13187
     13154     13180     13186     13188     13154     13180     13186     13189
     13155     13154     13156     13157     13155     13154     13156     13161
     13155     13154     13180     13181     13155     13154     13180     13182
     13155     13154     13180     13186     13156     13146     13144     13167
     13156     13154     13180     13181     13156     13154     13180     13182
     13156     13154     13180     13186     13156     13161     13164     13165
     13156     13161     13164     13166     13156     13161     13164     13167
     13157     13156     13154     13180     13157     13156     13161     13162
     13157     13156     13161     13163     13157     13156     13161     13164
     13158     13157     13156     13161     13159     13157     13156     13161
     13160     13157     13156     13161     13161     13156     13154     13180
     13161     13164     13167     13168     13161     13164     13167     13169
     13162     13161     13164     13165     13162     13161     13164     13166
     13162     13161     13164     13167     13163     13161     13164     13165
     13163     13161     13164     13166     13163     13161     13164     13167
     13164     13167     13169     13170     13164     13167     13169     13174
     13165     13164     13167     13168     13165     13164     13167     13169
     13166     13164     13167     13168     13166     13164     13167     13169
     13167     13169     13170     13171     13167     13169     13170     13172
     13167     13169     13170     13173     13167     13169     13174     13175
     13167     13169     13174     13176     13167     13169     13174     13177
     13168     13167     13169     13170     13168     13167     13169     13174
     13169     13174     13177     13178     13169     13174     13177     13179
     13170     13169     13174     13175     13170     13169     13174     13176
     13170     13169     13174     13177     13171     13170     13169     13174
     13172     13170     13169     13174     13173     13170     13169     13174
     13175     13174     13177     13178     13175     13174     13177     13179
     13176     13174     13177     13178     13176     13174     13177     13179
     13180     13186     13189     13190     13180     13186     13189     13191
     13180     13186     13189     13192     13181     13180     13182     13183
     13181     13180     13182     13184     13181     13180     13182     13185
     13181     13180     13186     13187     13181     13180     13186     13188
     13181     13180     13186     13189     13182     13180     13186     13187
     13182     13180     13186     13188     13182     13180     13186     13189
     13183     13182     13180     13186     13184     13182     13180     13186
     13185     13182     13180     13186     13186     13189     13192     13193
     13186     13189     13192     13194     13186     13189     13192     13195
     13187     13186     13189     13190     13187     13186     13189     13191
     13187     13186     13189     13192     13188     13186     13189     13190
     13188     13186     13189     13191     13188     13186     13189     13192
     13189     13192     13195     13196     13189     13192     13195     13197
     13189     13192     13195     13201     13190     13189     13192     13193
     13190     13189     13192     13194     13190     13189     13192     13195
     13191     13189     13192     13193     13191     13189     13192     13194
     13191     13189     13192     13195     13192     13195     13197     13198
     13192     13195     13197     13199     13192     13195     13197     13200
     13192     13195     13201     13202     13192     13195     13201     13203
     13192     13195     13201     13204     13193     13192     13195     13196
     13193     13192     13195     13197     13193     13192     13195     13201
     13194     13192     13195     13196     13194     13192     13195     13197
     13194     13192     13195     13201     13196     13195     13197     13198
     13196     13195     13197     13199     13196     13195     13197     13200
     13196     13195     13201     13202     13196     13195     13201     13203
     13196     13195     13201     13204     13197     13195     13201     13202
     13197     13195     13201     13203     13197     13195     13201     13204
     13198     13197     13195     13201     13199     13197     13195     13201
     13200     13197     13195     13201     13205     13209     13212     13213
     13205     13209     13212     13243     13205     13251     13248     13243
     13205     13251     13248     13249     13205     13251     13248     13250
     13206     13205     13207     13208     13206     13205     13209     13210
     13206     13205     13209     13211     13206     13205     13209     13212
     13206     13205     13251     13248     13206     13205     13251     13252
     13206     13205     13251     13253     13207     13205     13209     13210
     13207     13205     13209     13211     13207     13205     13209     13212
     13207     13205     13251     13248     13207     13205     13251     13252
     13207     13205     13251     13253     13208     13207     13205     13209
     13208     13207     13205     13251     13209     13205     13251     13248
     13209     13205     13251     13252     13209     13205     13251     13253
     13209     13212     13213     13214     13209     13212     13213     13215
     13209     13212     13243     13241     13209     13212     13243     13244
     13209     13212     13243     13248     13210     13209     13205     13251
     13210     13209     13212     13213     13210     13209     13212     13243
     13211     13209     13205     13251     13211     13209     13212     13213
     13211     13209     13212     13243     13212     13209     13205     13251
     13212     13213     13215     13216     13212     13213     13215     13217
     13212     13213     13215     13218     13212     13243     13241     13218
     13212     13243     13241     13238     13212     13243     13241     13242
     13212     13243     13244     13245     13212     13243     13244     13246
     13212     13243     13244     13247     13212     13243     13248     13249
     13212     13243     13248     13250     13212     13243     13248     13251
     13213     13212     13243     13241     13213     13212     13243     13244
     13213     13212     13243     13248     13213     13215     13218     13219
     13213     13215     13218     13220     13213     13215     13218     13241
     13214     13213     13212     13243     13214     13213     13215     13216
     13214     13213     13215     13217     13214     13213     13215     13218
     13215     13213     13212     13243     13215     13218     13220     13221
     13215     13218     13220     13222     13215     13218     13220     13230
     13215     13218     13241     13238     13215     13218     13241     13242
     13215     13218     13241     13243     13216     13215     13218     13219
     13216     13215     13218     13220     13216     13215     13218     13241
     13217     13215     13218     13219     13217     13215     13218     13220
     13217     13215     13218     13241     13218     13220     13222     13223
     13218     13220     13222     13224     13218     13220     13222     13225
     13218     13220     13230     13228     13218     13220     13230     13231
     13218     13220     13230     13235     13218     13241     13238     13235
     13218     13241     13238     13239     13218     13241     13238     13240
     13218     13241     13243     13244     13218     13241     13243     13248
     13219     13218     13220     13221     13219     13218     13220     13222
     13219     13218     13220     13230     13219     13218     13241     13238
     13219     13218     13241     13242     13219     13218     13241     13243
     13220     13218     13241     13238     13220     13218     13241     13242
     13220     13218     13241     13243     13220     13222     13225     13226
     13220     13222     13225     13227     13220     13222     13225     13228
     13220     13230     13228     13225     13220     13230     13228     13229
     13220     13230     13228     13254     13220     13230     13231     13232
     13220     13230     13231     13233     13220     13230     13231     13234
     13220     13230     13235     13236     13220     13230     13235     13237
     13220     13230     13235     13238     13221     13220     13218     13241
     13221     13220     13222     13223     13221     13220     13222     13224
     13221     13220     13222     13225     13221     13220     13230     13228
     13221     13220     13230     13231     13221     13220     13230     13235
     13222     13220     13218     13241     13222     13220     13230     13228
     13222     13220     13230     13231     13222     13220     13230     13235
     13222     13225     13228     13229     13222     13225     13228     13230
     13222     13225     13228     13254     13223     13222     13220     13230
     13223     13222     13225     13226     13223     13222     13225     13227
     13223     13222     13225     13228     13224     13222     13220     13230
     13224     13222     13225     13226     13224     13222     13225     13227
     13224     13222     13225     13228     13225     13222     13220     13230
     13225     13228     13230     13231     13225     13228     13230     13235
     13225     13228     13254     13255     13225     13228     13254     13256
     13225     13228     13254     13260     13226     13225     13228     13229
     13226     13225     13228     13230     13226     13225     13228     13254
     13227     13225     13228     13229     13227     13225     13228     13230
     13227     13225     13228     13254     13228     13230     13231     13232
     13228     13230     13231     13233     13228     13230     13231     13234
     13228     13230     13235     13236     13228     13230     13235     13237
     13228     13230     13235     13238     13228     13254     13256     13257
     13228     13254     13256     13258     13228     13254     13256     13259
     13228     13254     13260     13261     13228     13254     13260     13262
     13228     13254     13260     13263     13229     13228     13230     13231
     13229     13228     13230     13235     13229     13228     13254     13255
     13229     13228     13254     13256     13229     13228     13254     13260
     13230     13220     13218     13241     13230     13228     13254     13255
     13230     13228     13254     13256     13230     13228     13254     13260
     13230     13235     13238     13239     13230     13235     13238     13240
     13230     13235     13238     13241     13231     13230     13228     13254
     13231     13230     13235     13236     13231     13230     13235     13237
     13231     13230     13235     13238     13232     13231     13230     13235
     13233     13231     13230     13235     13234     13231     13230     13235
     13235     13230     13228     13254     13235     13238     13241     13242
     13235     13238     13241     13243     13236     13235     13238     13239
     13236     13235     13238     13240     13236     13235     13238     13241
     13237     13235     13238     13239     13237     13235     13238     13240
     13237     13235     13238     13241     13238     13241     13243     13244
     13238     13241     13243     13248     13239     13238     13241     13242
     13239     13238     13241     13243     13240     13238     13241     13242
     13240     13238     13241     13243     13241     13243     13244     13245
     13241     13243     13244     13246     13241     13243     13244     13247
     13241     13243     13248     13249     13241     13243     13248     13250
     13241     13243     13248     13251     13242     13241     13243     13244
     13242     13241     13243     13248     13243     13248     13251     13252
     13243     13248     13251     13253     13244     13243     13248     13249
     13244     13243     13248     13250     13244     13243     13248     13251
     13245     13244     13243     13248     13246     13244     13243     13248
     13247     13244     13243     13248     13249     13248     13251     13252
     13249     13248     13251     13253     13250     13248     13251     13252
     13250     13248     13251     13253     13254     13260     13263     13264
     13254     13260     13263     13265     13254     13260     13263     13266
     13255     13254     13256     13257     13255     13254     13256     13258
     13255     13254     13256     13259     13255     13254     13260     13261
     13255     13254     13260     13262     13255     13254     13260     13263
     13256     13254     13260     13261     13256     13254     13260     13262
     13256     13254     13260     13263     13257     13256     13254     13260
     13258     13256     13254     13260     13259     13256     13254     13260
     13260     13263     13266     13267     13260     13263     13266     13268
     13260     13263     13266     13269     13261     13260     13263     13264
     13261     13260     13263     13265     13261     13260     13263     13266
     13262     13260     13263     13264     13262     13260     13263     13265
     13262     13260     13263     13266     13263     13266     13269     13270
     13263     13266     13269     13271     13263     13266     13269     13275
     13264     13263     13266     13267     13264     13263     13266     13268
     13264     13263     13266     13269     13265     13263     13266     13267
     13265     13263     13266     13268     13265     13263     13266     13269
     13266     13269     13271     13272     13266     13269     13271     13273
     13266     13269     13271     13274     13266     13269     13275     13276
     13266     13269     13275     13277     13266     13269     13275     13278
     13267     13266     13269     13270     13267     13266     13269     13271
     13267     13266     13269     13275     13268     13266     13269     13270
     13268     13266     13269     13271     13268     13266     13269     13275
     13270     13269     13271     13272     13270     13269     13271     13273
     13270     13269     13271     13274     13270     13269     13275     13276
     13270     13269     13275     13277     13270     13269     13275     13278
     13271     13269     13275     13276     13271     13269     13275     13277
     13271     13269     13275     13278     13272     13271     13269     13275
     13273     13271     13269     13275     13274     13271     13269     13275
     13279     13283     13286     13287     13279     13283     13286     13317
     13279     13325     13322     13317     13279     13325     13322     13323
     13279     13325     13322     13324     13280     13279     13281     13282
     13280     13279     13283     13284     13280     13279     13283     13285
     13280     13279     13283     13286     13280     13279     13325     13322
     13280     13279     13325     13326     13280     13279     13325     13327
     13281     13279     13283     13284     13281     13279     13283     13285
     13281     13279     13283     13286     13281     13279     13325     13322
     13281     13279     13325     13326     13281     13279     13325     13327
     13282     13281     13279     13283     13282     13281     13279     13325
     13283     13279     13325     13322     13283     13279     13325     13326
     13283     13279     13325     13327     13283     13286     13287     13288
     13283     13286     13287     13289     13283     13286     13317     13315
     13283     13286     13317     13318     13283     13286     13317     13322
     13284     13283     13279     13325     13284     13283     13286     13287
     13284     13283     13286     13317     13285     13283     13279     13325
     13285     13283     13286     13287     13285     13283     13286     13317
     13286     13283     13279     13325     13286     13287     13289     13290
     13286     13287     13289     13291     13286     13287     13289     13292
     13286     13317     13315     13292     13286     13317     13315     13312
     13286     13317     13315     13316     13286     13317     13318     13319
     13286     13317     13318     13320     13286     13317     13318     13321
     13286     13317     13322     13323     13286     13317     13322     13324
     13286     13317     13322     13325     13287     13286     13317     13315
     13287     13286     13317     13318     13287     13286     13317     13322
     13287     13289     13292     13293     13287     13289     13292     13294
     13287     13289     13292     13315     13288     13287     13286     13317
     13288     13287     13289     13290     13288     13287     13289     13291
     13288     13287     13289     13292     13289     13287     13286     13317
     13289     13292     13294     13295     13289     13292     13294     13296
     13289     13292     13294     13304     13289     13292     13315     13312
     13289     13292     13315     13316     13289     13292     13315     13317
     13290     13289     13292     13293     13290     13289     13292     13294
     13290     13289     13292     13315     13291     13289     13292     13293
     13291     13289     13292     13294     13291     13289     13292     13315
     13292     13294     13296     13297     13292     13294     13296     13298
     13292     13294     13296     13299     13292     13294     13304     13302
     13292     13294     13304     13305     13292     13294     13304     13309
     13292     13315     13312     13309     13292     13315     13312     13313
     13292     13315     13312     13314     13292     13315     13317     13318
     13292     13315     13317     13322     13293     13292     13294     13295
     13293     13292     13294     13296     13293     13292     13294     13304
     13293     13292     13315     13312     13293     13292     13315     13316
     13293     13292     13315     13317     13294     13292     13315     13312
     13294     13292     13315     13316     13294     13292     13315     13317
     13294     13296     13299     13300     13294     13296     13299     13301
     13294     13296     13299     13302     13294     13304     13302     13299
     13294     13304     13302     13303     13294     13304     13302     13328
     13294     13304     13305     13306     13294     13304     13305     13307
     13294     13304     13305     13308     13294     13304     13309     13310
     13294     13304     13309     13311     13294     13304     13309     13312
     13295     13294     13292     13315     13295     13294     13296     13297
     13295     13294     13296     13298     13295     13294     13296     13299
     13295     13294     13304     13302     13295     13294     13304     13305
     13295     13294     13304     13309     13296     13294     13292     13315
     13296     13294     13304     13302     13296     13294     13304     13305
     13296     13294     13304     13309     13296     13299     13302     13303
     13296     13299     13302     13304     13296     13299     13302     13328
     13297     13296     13294     13304     13297     13296     13299     13300
     13297     13296     13299     13301     13297     13296     13299     13302
     13298     13296     13294     13304     13298     13296     13299     13300
     13298     13296     13299     13301     13298     13296     13299     13302
     13299     13296     13294     13304     13299     13302     13304     13305
     13299     13302     13304     13309     13299     13302     13328     13329
     13299     13302     13328     13330     13299     13302     13328     13334
     13300     13299     13302     13303     13300     13299     13302     13304
     13300     13299     13302     13328     13301     13299     13302     13303
     13301     13299     13302     13304     13301     13299     13302     13328
     13302     13304     13305     13306     13302     13304     13305     13307
     13302     13304     13305     13308     13302     13304     13309     13310
     13302     13304     13309     13311     13302     13304     13309     13312
     13302     13328     13330     13331     13302     13328     13330     13332
     13302     13328     13330     13333     13302     13328     13334     13335
     13302     13328     13334     13336     13302     13328     13334     13337
     13303     13302     13304     13305     13303     13302     13304     13309
     13303     13302     13328     13329     13303     13302     13328     13330
     13303     13302     13328     13334     13304     13294     13292     13315
     13304     13302     13328     13329     13304     13302     13328     13330
     13304     13302     13328     13334     13304     13309     13312     13313
     13304     13309     13312     13314     13304     13309     13312     13315
     13305     13304     13302     13328     13305     13304     13309     13310
     13305     13304     13309     13311     13305     13304     13309     13312
     13306     13305     13304     13309     13307     13305     13304     13309
     13308     13305     13304     13309     13309     13304     13302     13328
     13309     13312     13315     13316     13309     13312     13315     13317
     13310     13309     13312     13313     13310     13309     13312     13314
     13310     13309     13312     13315     13311     13309     13312     13313
     13311     13309     13312     13314     13311     13309     13312     13315
     13312     13315     13317     13318     13312     13315     13317     13322
     13313     13312     13315     13316     13313     13312     13315     13317
     13314     13312     13315     13316     13314     13312     13315     13317
     13315     13317     13318     13319     13315     13317     13318     13320
     13315     13317     13318     13321     13315     13317     13322     13323
     13315     13317     13322     13324     13315     13317     13322     13325
     13316     13315     13317     13318     13316     13315     13317     13322
     13317     13322     13325     13326     13317     13322     13325     13327
     13318     13317     13322     13323     13318     13317     13322     13324
     13318     13317     13322     13325     13319     13318     13317     13322
     13320     13318     13317     13322     13321     13318     13317     13322
     13323     13322     13325     13326     13323     13322     13325     13327
     13324     13322     13325     13326     13324     13322     13325     13327
     13328     13334     13337     13338     13328     13334     13337     13339
     13328     13334     13337     13340     13329     13328     13330     13331
     13329     13328     13330     13332     13329     13328     13330     13333
     13329     13328     13334     13335     13329     13328     13334     13336
     13329     13328     13334     13337     13330     13328     13334     13335
     13330     13328     13334     13336     13330     13328     13334     13337
     13331     13330     13328     13334     13332     13330     13328     13334
     13333     13330     13328     13334     13334     13337     13340     13341
     13334     13337     13340     13342     13334     13337     13340     13343
     13335     13334     13337     13338     13335     13334     13337     13339
     13335     13334     13337     13340     13336     13334     13337     13338
     13336     13334     13337     13339     13336     13334     13337     13340
     13337     13340     13343     13344     13337     13340     13343     13345
     13337     13340     13343     13349     13338     13337     13340     13341
     13338     13337     13340     13342     13338     13337     13340     13343
     13339     13337     13340     13341     13339     13337     13340     13342
     13339     13337     13340     13343     13340     13343     13345     13346
     13340     13343     13345     13347     13340     13343     13345     13348
     13340     13343     13349     13350     13340     13343     13349     13351
     13340     13343     13349     13352     13341     13340     13343     13344
     13341     13340     13343     13345     13341     13340     13343     13349
     13342     13340     13343     13344     13342     13340     13343     13345
     13342     13340     13343     13349     13344     13343     13345     13346
     13344     13343     13345     13347     13344     13343     13345     13348
     13344     13343     13349     13350     13344     13343     13349     13351
     13344     13343     13349     13352     13345     13343     13349     13350
     13345     13343     13349     13351     13345     13343     13349     13352
     13346     13345     13343     13349     13347     13345     13343     13349
     13348     13345     13343     13349     13353     13354     13369     13370
     13353     13354     13369     13371     13353     13354     13369     13375
     13354     13353     13357     13358     13354     13353     13357     13359
     13354     13353     13357     13360     13354     13353     13361     13362
     13354     13353     13361     13363     13354     13353     13361     13364
     13354     13353     13365     13366     13354     13353     13365     13367
     13354     13353     13365     13368     13354     13369     13375     13372
     13355     13354     13353     13357     13355     13354     13353     13361
     13355     13354     13353     13365     13355     13354     13369     13370
     13355     13354     13369     13371     13355     13354     13369     13375
     13356     13354     13353     13357     13356     13354     13353     13361
     13356     13354     13353     13365     13356     13354     13369     13370
     13356     13354     13369     13371     13356     13354     13369     13375
     13357     13353     13354     13369     13357     13353     13361     13362
     13357     13353     13361     13363     13357     13353     13361     13364
     13357     13353     13365     13366     13357     13353     13365     13367
     13357     13353     13365     13368     13358     13357     13353     13361
     13358     13357     13353     13365     13359     13357     13353     13361
     13359     13357     13353     13365     13360     13357     13353     13361
     13360     13357     13353     13365     13361     13353     13354     13369
     13361     13353     13365     13366     13361     13353     13365     13367
     13361     13353     13365     13368     13362     13361     13353     13365
     13363     13361     13353     13365     13364     13361     13353     13365
     13365     13353     13354     13369     13369     13375     13372     13373
     13369     13375     13372     13374     13369     13375     13372     13376
     13370     13369     13375     13372     13371     13369     13375     13372
     13372     13376     13377     13378     13372     13376     13377     13379
     13372     13376     13377     13380     13373     13372     13376     13377
     13374     13372     13376     13377     13375     13372     13376     13377
     13376     13377     13380     13381     13376     13377     13380     13382
     13376     13377     13380     13388     13377     13380     13382     13383
     13377     13380     13388     13389     13377     13380     13388     13390
     13377     13380     13388     13391     13378     13377     13380     13381
     13378     13377     13380     13382     13378     13377     13380     13388
     13379     13377     13380     13381     13379     13377     13380     13382
     13379     13377     13380     13388     13380     13382     13383     13384
     13380     13382     13383     13385     13380     13388     13391     13392
     13381     13380     13382     13383     13381     13380     13388     13389
     13381     13380     13388     13390     13381     13380     13388     13391
     13382     13380     13388     13389     13382     13380     13388     13390
     13382     13380     13388     13391     13382     13383     13385     13386
     13382     13383     13385     13387     13382     13383     13385     13397
     13383     13382     13380     13388     13383     13385     13397     13398
     13383     13385     13397     13399     13383     13385     13397     13400
     13384     13383     13385     13386     13384     13383     13385     13387
     13384     13383     13385     13397     13385     13397     13400     13401
     13385     13397     13400     13402     13385     13397     13400     13403
     13386     13385     13397     13398     13386     13385     13397     13399
     13386     13385     13397     13400     13387     13385     13397     13398
     13387     13385     13397     13399     13387     13385     13397     13400
     13388     13391     13392     13393     13388     13391     13392     13394
     13389     13388     13391     13392     13390     13388     13391     13392
     13391     13392     13394     13395     13391     13392     13394     13396
     13391     13392     13394     13444     13392     13394     13444     13445
     13392     13394     13444     13446     13392     13394     13444     13447
     13393     13392     13394     13395     13393     13392     13394     13396
     13393     13392     13394     13444     13394     13444     13447     13448
     13394     13444     13447     13449     13394     13444     13447     13450
     13395     13394     13444     13445     13395     13394     13444     13446
     13395     13394     13444     13447     13396     13394     13444     13445
     13396     13394     13444     13446     13396     13394     13444     13447
     13397     13400     13403     13404     13397     13400     13403     13405
     13398     13397     13400     13401     13398     13397     13400     13402
     13398     13397     13400     13403     13399     13397     13400     13401
     13399     13397     13400     13402     13399     13397     13400     13403
     13400     13403     13405     13406     13400     13403     13405     13407
     13401     13400     13403     13404     13401     13400     13403     13405
     13402     13400     13403     13404     13402     13400     13403     13405
     13403     13405     13407     13408     13403     13405     13407     13409
     13403     13405     13407     13410     13404     13403     13405     13406
     13404     13403     13405     13407     13405     13407     13410     13411
     13405     13407     13410     13412     13406     13405     13407     13408
     13406     13405     13407     13409     13406     13405     13407     13410
     13407     13410     13412     13413     13407     13410     13412     13414
     13408     13407     13410     13411     13408     13407     13410     13412
     13409     13407     13410     13411     13409     13407     13410     13412
     13410     13412     13414     13415     13410     13412     13414     13416
     13410     13412     13414     13417     13411     13410     13412     13413
     13411     13410     13412     13414     13412     13414     13417     13418
     13412     13414     13417     13419     13413     13412     13414     13415
     13413     13412     13414     13416     13413     13412     13414     13417
     13414     13417     13419     13420     13414     13417     13419     13421
     13415     13414     13417     13418     13415     13414     13417     13419
     13416     13414     13417     13418     13416     13414     13417     13419
     13417     13419     13421     13422     13417     13419     13421     13423
     13417     13419     13421     13424     13418     13417     13419     13420
     13418     13417     13419     13421     13419     13421     13424     13425
     13419     13421     13424     13426     13420     13419     13421     13422
     13420     13419     13421     13423     13420     13419     13421     13424
     13421     13424     13426     13427     13421     13424     13426     13428
     13422     13421     13424     13425     13422     13421     13424     13426
     13423     13421     13424     13425     13423     13421     13424     13426
     13424     13426     13428     13429     13424     13426     13428     13430
     13424     13426     13428     13431     13425     13424     13426     13427
     13425     13424     13426     13428     13426     13428     13431     13432
     13426     13428     13431     13433     13426     13428     13431     13434
     13427     13426     13428     13429     13427     13426     13428     13430
     13427     13426     13428     13431     13428     13431     13434     13435
     13428     13431     13434     13436     13428     13431     13434     13437
     13429     13428     13431     13432     13429     13428     13431     13433
     13429     13428     13431     13434     13430     13428     13431     13432
     13430     13428     13431     13433     13430     13428     13431     13434
     13431     13434     13437     13438     13431     13434     13437     13439
     13431     13434     13437     13440     13432     13431     13434     13435
     13432     13431     13434     13436     13432     13431     13434     13437
     13433     13431     13434     13435     13433     13431     13434     13436
     13433     13431     13434     13437     13434     13437     13440     13441
     13434     13437     13440     13442     13434     13437     13440     13443
     13435     13434     13437     13438     13435     13434     13437     13439
     13435     13434     13437     13440     13436     13434     13437     13438
     13436     13434     13437     13439     13436     13434     13437     13440
     13438     13437     13440     13441     13438     13437     13440     13442
     13438     13437     13440     13443     13439     13437     13440     13441
     13439     13437     13440     13442     13439     13437     13440     13443
     13444     13447     13450     13451     13444     13447     13450     13452
     13444     13447     13450     13453     13445     13444     13447     13448
     13445     13444     13447     13449     13445     13444     13447     13450
     13446     13444     13447     13448     13446     13444     13447     13449
     13446     13444     13447     13450     13447     13450     13453     13454
     13447     13450     13453     13455     13447     13450     13453     13456
     13448     13447     13450     13451     13448     13447     13450     13452
     13448     13447     13450     13453     13449     13447     13450     13451
     13449     13447     13450     13452     13449     13447     13450     13453
     13450     13453     13456     13457     13450     13453     13456     13458
     13450     13453     13456     13459     13451     13450     13453     13454
     13451     13450     13453     13455     13451     13450     13453     13456
     13452     13450     13453     13454     13452     13450     13453     13455
     13452     13450     13453     13456     13453     13456     13459     13460
     13453     13456     13459     13461     13453     13456     13459     13462
     13454     13453     13456     13457     13454     13453     13456     13458
     13454     13453     13456     13459     13455     13453     13456     13457
     13455     13453     13456     13458     13455     13453     13456     13459
     13456     13459     13462     13463     13456     13459     13462     13464
     13456     13459     13462     13465     13457     13456     13459     13460
     13457     13456     13459     13461     13457     13456     13459     13462
     13458     13456     13459     13460     13458     13456     13459     13461
     13458     13456     13459     13462     13459     13462     13465     13466
     13459     13462     13465     13467     13459     13462     13465     13468
     13460     13459     13462     13463     13460     13459     13462     13464
     13460     13459     13462     13465     13461     13459     13462     13463
     13461     13459     13462     13464     13461     13459     13462     13465
     13462     13465     13468     13469     13462     13465     13468     13470
     13462     13465     13468     13471     13463     13462     13465     13466
     13463     13462     13465     13467     13463     13462     13465     13468
     13464     13462     13465     13466     13464     13462     13465     13467
     13464     13462     13465     13468     13465     13468     13471     13472
     13465     13468     13471     13473     13465     13468     13471     13474
     13466     13465     13468     13469     13466     13465     13468     13470
     13466     13465     13468     13471     13467     13465     13468     13469
     13467     13465     13468     13470     13467     13465     13468     13471
     13468     13471     13474     13475     13468     13471     13474     13476
     13468     13471     13474     13477     13469     13468     13471     13472
     13469     13468     13471     13473     13469     13468     13471     13474
     13470     13468     13471     13472     13470     13468     13471     13473
     13470     13468     13471     13474     13471     13474     13477     13478
     13471     13474     13477     13479     13471     13474     13477     13480
     13472     13471     13474     13475     13472     13471     13474     13476
     13472     13471     13474     13477     13473     13471     13474     13475
     13473     13471     13474     13476     13473     13471     13474     13477
     13474     13477     13480     13481     13474     13477     13480     13482
     13474     13477     13480     13483     13475     13474     13477     13478
     13475     13474     13477     13479     13475     13474     13477     13480
     13476     13474     13477     13478     13476     13474     13477     13479
     13476     13474     13477     13480     13477     13480     13483     13484
     13477     13480     13483     13485     13477     13480     13483     13486
     13478     13477     13480     13481     13478     13477     13480     13482
     13478     13477     13480     13483     13479     13477     13480     13481
     13479     13477     13480     13482     13479     13477     13480     13483
     13480     13483     13486     13487     13480     13483     13486     13488
     13480     13483     13486     13489     13481     13480     13483     13484
     13481     13480     13483     13485     13481     13480     13483     13486
     13482     13480     13483     13484     13482     13480     13483     13485
     13482     13480     13483     13486     13483     13486     13489     13490
     13483     13486     13489     13491     13483     13486     13489     13492
     13484     13483     13486     13487     13484     13483     13486     13488
     13484     13483     13486     13489     13485     13483     13486     13487
     13485     13483     13486     13488     13485     13483     13486     13489
     13487     13486     13489     13490     13487     13486     13489     13491
     13487     13486     13489     13492     13488     13486     13489     13490
     13488     13486     13489     13491     13488     13486     13489     13492
     13493     13497     13500     13501     13493     13497     13500     13531
     13493     13539     13536     13531     13493     13539     13536     13537
     13493     13539     13536     13538     13494     13493     13495     13496
     13494     13493     13497     13498     13494     13493     13497     13499
     13494     13493     13497     13500     13494     13493     13539     13536
     13494     13493     13539     13540     13494     13493     13539     13541
     13495     13493     13497     13498     13495     13493     13497     13499
     13495     13493     13497     13500     13495     13493     13539     13536
     13495     13493     13539     13540     13495     13493     13539     13541
     13496     13495     13493     13497     13496     13495     13493     13539
     13497     13493     13539     13536     13497     13493     13539     13540
     13497     13493     13539     13541     13497     13500     13501     13502
     13497     13500     13501     13503     13497     13500     13531     13529
     13497     13500     13531     13532     13497     13500     13531     13536
     13498     13497     13493     13539     13498     13497     13500     13501
     13498     13497     13500     13531     13499     13497     13493     13539
     13499     13497     13500     13501     13499     13497     13500     13531
     13500     13497     13493     13539     13500     13501     13503     13504
     13500     13501     13503     13505     13500     13501     13503     13506
     13500     13531     13529     13506     13500     13531     13529     13526
     13500     13531     13529     13530     13500     13531     13532     13533
     13500     13531     13532     13534     13500     13531     13532     13535
     13500     13531     13536     13537     13500     13531     13536     13538
     13500     13531     13536     13539     13501     13500     13531     13529
     13501     13500     13531     13532     13501     13500     13531     13536
     13501     13503     13506     13507     13501     13503     13506     13508
     13501     13503     13506     13529     13502     13501     13500     13531
     13502     13501     13503     13504     13502     13501     13503     13505
     13502     13501     13503     13506     13503     13501     13500     13531
     13503     13506     13508     13509     13503     13506     13508     13510
     13503     13506     13508     13518     13503     13506     13529     13526
     13503     13506     13529     13530     13503     13506     13529     13531
     13504     13503     13506     13507     13504     13503     13506     13508
     13504     13503     13506     13529     13505     13503     13506     13507
     13505     13503     13506     13508     13505     13503     13506     13529
     13506     13508     13510     13511     13506     13508     13510     13512
     13506     13508     13510     13513     13506     13508     13518     13516
     13506     13508     13518     13519     13506     13508     13518     13523
     13506     13529     13526     13523     13506     13529     13526     13527
     13506     13529     13526     13528     13506     13529     13531     13532
     13506     13529     13531     13536     13507     13506     13508     13509
     13507     13506     13508     13510     13507     13506     13508     13518
     13507     13506     13529     13526     13507     13506     13529     13530
     13507     13506     13529     13531     13508     13506     13529     13526
     13508     13506     13529     13530     13508     13506     13529     13531
     13508     13510     13513     13514     13508     13510     13513     13515
     13508     13510     13513     13516     13508     13518     13516     13513
     13508     13518     13516     13517     13508     13518     13516     13542
     13508     13518     13519     13520     13508     13518     13519     13521
     13508     13518     13519     13522     13508     13518     13523     13524
     13508     13518     13523     13525     13508     13518     13523     13526
     13509     13508     13506     13529     13509     13508     13510     13511
     13509     13508     13510     13512     13509     13508     13510     13513
     13509     13508     13518     13516     13509     13508     13518     13519
     13509     13508     13518     13523     13510     13508     13506     13529
     13510     13508     13518     13516     13510     13508     13518     13519
     13510     13508     13518     13523     13510     13513     13516     13517
     13510     13513     13516     13518     13510     13513     13516     13542
     13511     13510     13508     13518     13511     13510     13513     13514
     13511     13510     13513     13515     13511     13510     13513     13516
     13512     13510     13508     13518     13512     13510     13513     13514
     13512     13510     13513     13515     13512     13510     13513     13516
     13513     13510     13508     13518     13513     13516     13518     13519
     13513     13516     13518     13523     13513     13516     13542     13543
     13513     13516     13542     13544     13513     13516     13542     13548
     13514     13513     13516     13517     13514     13513     13516     13518
     13514     13513     13516     13542     13515     13513     13516     13517
     13515     13513     13516     13518     13515     13513     13516     13542
     13516     13518     13519     13520     13516     13518     13519     13521
     13516     13518     13519     13522     13516     13518     13523     13524
     13516     13518     13523     13525     13516     13518     13523     13526
     13516     13542     13544     13545     13516     13542     13544     13546
     13516     13542     13544     13547     13516     13542     13548     13549
     13516     13542     13548     13550     13516     13542     13548     13551
     13517     13516     13518     13519     13517     13516     13518     13523
     13517     13516     13542     13543     13517     13516     13542     13544
     13517     13516     13542     13548     13518     13508     13506     13529
     13518     13516     13542     13543     13518     13516     13542     13544
     13518     13516     13542     13548     13518     13523     13526     13527
     13518     13523     13526     13528     13518     13523     13526     13529
     13519     13518     13516     13542     13519     13518     13523     13524
     13519     13518     13523     13525     13519     13518     13523     13526
     13520     13519     13518     13523     13521     13519     13518     13523
     13522     13519     13518     13523     13523     13518     13516     13542
     13523     13526     13529     13530     13523     13526     13529     13531
     13524     13523     13526     13527     13524     13523     13526     13528
     13524     13523     13526     13529     13525     13523     13526     13527
     13525     13523     13526     13528     13525     13523     13526     13529
     13526     13529     13531     13532     13526     13529     13531     13536
     13527     13526     13529     13530     13527     13526     13529     13531
     13528     13526     13529     13530     13528     13526     13529     13531
     13529     13531     13532     13533     13529     13531     13532     13534
     13529     13531     13532     13535     13529     13531     13536     13537
     13529     13531     13536     13538     13529     13531     13536     13539
     13530     13529     13531     13532     13530     13529     13531     13536
     13531     13536     13539     13540     13531     13536     13539     13541
     13532     13531     13536     13537     13532     13531     13536     13538
     13532     13531     13536     13539     13533     13532     13531     13536
     13534     13532     13531     13536     13535     13532     13531     13536
     13537     13536     13539     13540     13537     13536     13539     13541
     13538     13536     13539     13540     13538     13536     13539     13541
     13542     13548     13551     13552     13542     13548     13551     13553
     13542     13548     13551     13554     13543     13542     13544     13545
     13543     13542     13544     13546     13543     13542     13544     13547
     13543     13542     13548     13549     13543     13542     13548     13550
     13543     13542     13548     13551     13544     13542     13548     13549
     13544     13542     13548     13550     13544     13542     13548     13551
     13545     13544     13542     13548     13546     13544     13542     13548
     13547     13544     13542     13548     13548     13551     13554     13555
     13548     13551     13554     13556     13548     13551     13554     13557
     13549     13548     13551     13552     13549     13548     13551     13553
     13549     13548     13551     13554     13550     13548     13551     13552
     13550     13548     13551     13553     13550     13548     13551     13554
     13551     13554     13557     13558     13551     13554     13557     13559
     13551     13554     13557     13563     13552     13551     13554     13555
     13552     13551     13554     13556     13552     13551     13554     13557
     13553     13551     13554     13555     13553     13551     13554     13556
     13553     13551     13554     13557     13554     13557     13559     13560
     13554     13557     13559     13561     13554     13557     13559     13562
     13554     13557     13563     13564     13554     13557     13563     13565
     13554     13557     13563     13566     13555     13554     13557     13558
     13555     13554     13557     13559     13555     13554     13557     13563
     13556     13554     13557     13558     13556     13554     13557     13559
     13556     13554     13557     13563     13558     13557     13559     13560
     13558     13557     13559     13561     13558     13557     13559     13562
     13558     13557     13563     13564     13558     13557     13563     13565
     13558     13557     13563     13566     13559     13557     13563     13564
     13559     13557     13563     13565     13559     13557     13563     13566
     13560     13559     13557     13563     13561     13559     13557     13563
     13562     13559     13557     13563     13567     13571     13574     13575
     13567     13571     13574     13605     13567     13613     13610     13605
     13567     13613     13610     13611     13567     13613     13610     13612
     13568     13567     13569     13570     13568     13567     13571     13572
     13568     13567     13571     13573     13568     13567     13571     13574
     13568     13567     13613     13610     13568     13567     13613     13614
     13568     13567     13613     13615     13569     13567     13571     13572
     13569     13567     13571     13573     13569     13567     13571     13574
     13569     13567     13613     13610     13569     13567     13613     13614
     13569     13567     13613     13615     13570     13569     13567     13571
     13570     13569     13567     13613     13571     13567     13613     13610
     13571     13567     13613     13614     13571     13567     13613     13615
     13571     13574     13575     13576     13571     13574     13575     13577
     13571     13574     13605     13603     13571     13574     13605     13606
     13571     13574     13605     13610     13572     13571     13567     13613
     13572     13571     13574     13575     13572     13571     13574     13605
     13573     13571     13567     13613     13573     13571     13574     13575
     13573     13571     13574     13605     13574     13571     13567     13613
     13574     13575     13577     13578     13574     13575     13577     13579
     13574     13575     13577     13580     13574     13605     13603     13580
     13574     13605     13603     13600     13574     13605     13603     13604
     13574     13605     13606     13607     13574     13605     13606     13608
     13574     13605     13606     13609     13574     13605     13610     13611
     13574     13605     13610     13612     13574     13605     13610     13613
     13575     13574     13605     13603     13575     13574     13605     13606
     13575     13574     13605     13610     13575     13577     13580     13581
     13575     13577     13580     13582     13575     13577     13580     13603
     13576     13575     13574     13605     13576     13575     13577     13578
     13576     13575     13577     13579     13576     13575     13577     13580
     13577     13575     13574     13605     13577     13580     13582     13583
     13577     13580     13582     13584     13577     13580     13582     13592
     13577     13580     13603     13600     13577     13580     13603     13604
     13577     13580     13603     13605     13578     13577     13580     13581
     13578     13577     13580     13582     13578     13577     13580     13603
     13579     13577     13580     13581     13579     13577     13580     13582
     13579     13577     13580     13603     13580     13582     13584     13585
     13580     13582     13584     13586     13580     13582     13584     13587
     13580     13582     13592     13590     13580     13582     13592     13593
     13580     13582     13592     13597     13580     13603     13600     13597
     13580     13603     13600     13601     13580     13603     13600     13602
     13580     13603     13605     13606     13580     13603     13605     13610
     13581     13580     13582     13583     13581     13580     13582     13584
     13581     13580     13582     13592     13581     13580     13603     13600
     13581     13580     13603     13604     13581     13580     13603     13605
     13582     13580     13603     13600     13582     13580     13603     13604
     13582     13580     13603     13605     13582     13584     13587     13588
     13582     13584     13587     13589     13582     13584     13587     13590
     13582     13592     13590     13587     13582     13592     13590     13591
     13582     13592     13590     13616     13582     13592     13593     13594
     13582     13592     13593     13595     13582     13592     13593     13596
     13582     13592     13597     13598     13582     13592     13597     13599
     13582     13592     13597     13600     13583     13582     13580     13603
     13583     13582     13584     13585     13583     13582     13584     13586
     13583     13582     13584     13587     13583     13582     13592     13590
     13583     13582     13592     13593     13583     13582     13592     13597
     13584     13582     13580     13603     13584     13582     13592     13590
     13584     13582     13592     13593     13584     13582     13592     13597
     13584     13587     13590     13591     13584     13587     13590     13592
     13584     13587     13590     13616     13585     13584     13582     13592
     13585     13584     13587     13588     13585     13584     13587     13589
     13585     13584     13587     13590     13586     13584     13582     13592
     13586     13584     13587     13588     13586     13584     13587     13589
     13586     13584     13587     13590     13587     13584     13582     13592
     13587     13590     13592     13593     13587     13590     13592     13597
     13587     13590     13616     13617     13587     13590     13616     13618
     13587     13590     13616     13622     13588     13587     13590     13591
     13588     13587     13590     13592     13588     13587     13590     13616
     13589     13587     13590     13591     13589     13587     13590     13592
     13589     13587     13590     13616     13590     13592     13593     13594
     13590     13592     13593     13595     13590     13592     13593     13596
     13590     13592     13597     13598     13590     13592     13597     13599
     13590     13592     13597     13600     13590     13616     13618     13619
     13590     13616     13618     13620     13590     13616     13618     13621
     13590     13616     13622     13623     13590     13616     13622     13624
     13590     13616     13622     13625     13591     13590     13592     13593
     13591     13590     13592     13597     13591     13590     13616     13617
     13591     13590     13616     13618     13591     13590     13616     13622
     13592     13582     13580     13603     13592     13590     13616     13617
     13592     13590     13616     13618     13592     13590     13616     13622
     13592     13597     13600     13601     13592     13597     13600     13602
     13592     13597     13600     13603     13593     13592     13590     13616
     13593     13592     13597     13598     13593     13592     13597     13599
     13593     13592     13597     13600     13594     13593     13592     13597
     13595     13593     13592     13597     13596     13593     13592     13597
     13597     13592     13590     13616     13597     13600     13603     13604
     13597     13600     13603     13605     13598     13597     13600     13601
     13598     13597     13600     13602     13598     13597     13600     13603
     13599     13597     13600     13601     13599     13597     13600     13602
     13599     13597     13600     13603     13600     13603     13605     13606
     13600     13603     13605     13610     13601     13600     13603     13604
     13601     13600     13603     13605     13602     13600     13603     13604
     13602     13600     13603     13605     13603     13605     13606     13607
     13603     13605     13606     13608     13603     13605     13606     13609
     13603     13605     13610     13611     13603     13605     13610     13612
     13603     13605     13610     13613     13604     13603     13605     13606
     13604     13603     13605     13610     13605     13610     13613     13614
     13605     13610     13613     13615     13606     13605     13610     13611
     13606     13605     13610     13612     13606     13605     13610     13613
     13607     13606     13605     13610     13608     13606     13605     13610
     13609     13606     13605     13610     13611     13610     13613     13614
     13611     13610     13613     13615     13612     13610     13613     13614
     13612     13610     13613     13615     13616     13622     13625     13626
     13616     13622     13625     13627     13616     13622     13625     13628
     13617     13616     13618     13619     13617     13616     13618     13620
     13617     13616     13618     13621     13617     13616     13622     13623
     13617     13616     13622     13624     13617     13616     13622     13625
     13618     13616     13622     13623     13618     13616     13622     13624
     13618     13616     13622     13625     13619     13618     13616     13622
     13620     13618     13616     13622     13621     13618     13616     13622
     13622     13625     13628     13629     13622     13625     13628     13630
     13622     13625     13628     13631     13623     13622     13625     13626
     13623     13622     13625     13627     13623     13622     13625     13628
     13624     13622     13625     13626     13624     13622     13625     13627
     13624     13622     13625     13628     13625     13628     13631     13632
     13625     13628     13631     13633     13625     13628     13631     13637
     13626     13625     13628     13629     13626     13625     13628     13630
     13626     13625     13628     13631     13627     13625     13628     13629
     13627     13625     13628     13630     13627     13625     13628     13631
     13628     13631     13633     13634     13628     13631     13633     13635
     13628     13631     13633     13636     13628     13631     13637     13638
     13628     13631     13637     13639     13628     13631     13637     13640
     13629     13628     13631     13632     13629     13628     13631     13633
     13629     13628     13631     13637     13630     13628     13631     13632
     13630     13628     13631     13633     13630     13628     13631     13637
     13632     13631     13633     13634     13632     13631     13633     13635
     13632     13631     13633     13636     13632     13631     13637     13638
     13632     13631     13637     13639     13632     13631     13637     13640
     13633     13631     13637     13638     13633     13631     13637     13639
     13633     13631     13637     13640     13634     13633     13631     13637
     13635     13633     13631     13637     13636     13633     13631     13637
     13641     13645     13648     13649     13641     13645     13648     13679
     13641     13687     13684     13679     13641     13687     13684     13685
     13641     13687     13684     13686     13642     13641     13643     13644
     13642     13641     13645     13646     13642     13641     13645     13647
     13642     13641     13645     13648     13642     13641     13687     13684
     13642     13641     13687     13688     13642     13641     13687     13689
     13643     13641     13645     13646     13643     13641     13645     13647
     13643     13641     13645     13648     13643     13641     13687     13684
     13643     13641     13687     13688     13643     13641     13687     13689
     13644     13643     13641     13645     13644     13643     13641     13687
     13645     13641     13687     13684     13645     13641     13687     13688
     13645     13641     13687     13689     13645     13648     13649     13650
     13645     13648     13649     13651     13645     13648     13679     13677
     13645     13648     13679     13680     13645     13648     13679     13684
     13646     13645     13641     13687     13646     13645     13648     13649
     13646     13645     13648     13679     13647     13645     13641     13687
     13647     13645     13648     13649     13647     13645     13648     13679
     13648     13645     13641     13687     13648     13649     13651     13652
     13648     13649     13651     13653     13648     13649     13651     13654
     13648     13679     13677     13654     13648     13679     13677     13674
     13648     13679     13677     13678     13648     13679     13680     13681
     13648     13679     13680     13682     13648     13679     13680     13683
     13648     13679     13684     13685     13648     13679     13684     13686
     13648     13679     13684     13687     13649     13648     13679     13677
     13649     13648     13679     13680     13649     13648     13679     13684
     13649     13651     13654     13655     13649     13651     13654     13656
     13649     13651     13654     13677     13650     13649     13648     13679
     13650     13649     13651     13652     13650     13649     13651     13653
     13650     13649     13651     13654     13651     13649     13648     13679
     13651     13654     13656     13657     13651     13654     13656     13658
     13651     13654     13656     13666     13651     13654     13677     13674
     13651     13654     13677     13678     13651     13654     13677     13679
     13652     13651     13654     13655     13652     13651     13654     13656
     13652     13651     13654     13677     13653     13651     13654     13655
     13653     13651     13654     13656     13653     13651     13654     13677
     13654     13656     13658     13659     13654     13656     13658     13660
     13654     13656     13658     13661     13654     13656     13666     13664
     13654     13656     13666     13667     13654     13656     13666     13671
     13654     13677     13674     13671     13654     13677     13674     13675
     13654     13677     13674     13676     13654     13677     13679     13680
     13654     13677     13679     13684     13655     13654     13656     13657
     13655     13654     13656     13658     13655     13654     13656     13666
     13655     13654     13677     13674     13655     13654     13677     13678
     13655     13654     13677     13679     13656     13654     13677     13674
     13656     13654     13677     13678     13656     13654     13677     13679
     13656     13658     13661     13662     13656     13658     13661     13663
     13656     13658     13661     13664     13656     13666     13664     13661
     13656     13666     13664     13665     13656     13666     13664     13690
     13656     13666     13667     13668     13656     13666     13667     13669
     13656     13666     13667     13670     13656     13666     13671     13672
     13656     13666     13671     13673     13656     13666     13671     13674
     13657     13656     13654     13677     13657     13656     13658     13659
     13657     13656     13658     13660     13657     13656     13658     13661
     13657     13656     13666     13664     13657     13656     13666     13667
     13657     13656     13666     13671     13658     13656     13654     13677
     13658     13656     13666     13664     13658     13656     13666     13667
     13658     13656     13666     13671     13658     13661     13664     13665
     13658     13661     13664     13666     13658     13661     13664     13690
     13659     13658     13656     13666     13659     13658     13661     13662
     13659     13658     13661     13663     13659     13658     13661     13664
     13660     13658     13656     13666     13660     13658     13661     13662
     13660     13658     13661     13663     13660     13658     13661     13664
     13661     13658     13656     13666     13661     13664     13666     13667
     13661     13664     13666     13671     13661     13664     13690     13691
     13661     13664     13690     13692     13661     13664     13690     13696
     13662     13661     13664     13665     13662     13661     13664     13666
     13662     13661     13664     13690     13663     13661     13664     13665
     13663     13661     13664     13666     13663     13661     13664     13690
     13664     13666     13667     13668     13664     13666     13667     13669
     13664     13666     13667     13670     13664     13666     13671     13672
     13664     13666     13671     13673     13664     13666     13671     13674
     13664     13690     13692     13693     13664     13690     13692     13694
     13664     13690     13692     13695     13664     13690     13696     13697
     13664     13690     13696     13698     13664     13690     13696     13699
     13665     13664     13666     13667     13665     13664     13666     13671
     13665     13664     13690     13691     13665     13664     13690     13692
     13665     13664     13690     13696     13666     13656     13654     13677
     13666     13664     13690     13691     13666     13664     13690     13692
     13666     13664     13690     13696     13666     13671     13674     13675
     13666     13671     13674     13676     13666     13671     13674     13677
     13667     13666     13664     13690     13667     13666     13671     13672
     13667     13666     13671     13673     13667     13666     13671     13674
     13668     13667     13666     13671     13669     13667     13666     13671
     13670     13667     13666     13671     13671     13666     13664     13690
     13671     13674     13677     13678     13671     13674     13677     13679
     13672     13671     13674     13675     13672     13671     13674     13676
     13672     13671     13674     13677     13673     13671     13674     13675
     13673     13671     13674     13676     13673     13671     13674     13677
     13674     13677     13679     13680     13674     13677     13679     13684
     13675     13674     13677     13678     13675     13674     13677     13679
     13676     13674     13677     13678     13676     13674     13677     13679
     13677     13679     13680     13681     13677     13679     13680     13682
     13677     13679     13680     13683     13677     13679     13684     13685
     13677     13679     13684     13686     13677     13679     13684     13687
     13678     13677     13679     13680     13678     13677     13679     13684
     13679     13684     13687     13688     13679     13684     13687     13689
     13680     13679     13684     13685     13680     13679     13684     13686
     13680     13679     13684     13687     13681     13680     13679     13684
     13682     13680     13679     13684     13683     13680     13679     13684
     13685     13684     13687     13688     13685     13684     13687     13689
     13686     13684     13687     13688     13686     13684     13687     13689
     13690     13696     13699     13700     13690     13696     13699     13701
     13690     13696     13699     13702     13691     13690     13692     13693
     13691     13690     13692     13694     13691     13690     13692     13695
     13691     13690     13696     13697     13691     13690     13696     13698
     13691     13690     13696     13699     13692     13690     13696     13697
     13692     13690     13696     13698     13692     13690     13696     13699
     13693     13692     13690     13696     13694     13692     13690     13696
     13695     13692     13690     13696     13696     13699     13702     13703
     13696     13699     13702     13704     13696     13699     13702     13705
     13697     13696     13699     13700     13697     13696     13699     13701
     13697     13696     13699     13702     13698     13696     13699     13700
     13698     13696     13699     13701     13698     13696     13699     13702
     13699     13702     13705     13706     13699     13702     13705     13707
     13699     13702     13705     13711     13700     13699     13702     13703
     13700     13699     13702     13704     13700     13699     13702     13705
     13701     13699     13702     13703     13701     13699     13702     13704
     13701     13699     13702     13705     13702     13705     13707     13708
     13702     13705     13707     13709     13702     13705     13707     13710
     13702     13705     13711     13712     13702     13705     13711     13713
     13702     13705     13711     13714     13703     13702     13705     13706
     13703     13702     13705     13707     13703     13702     13705     13711
     13704     13702     13705     13706     13704     13702     13705     13707
     13704     13702     13705     13711     13706     13705     13707     13708
     13706     13705     13707     13709     13706     13705     13707     13710
     13706     13705     13711     13712     13706     13705     13711     13713
     13706     13705     13711     13714     13707     13705     13711     13712
     13707     13705     13711     13713     13707     13705     13711     13714
     13708     13707     13705     13711     13709     13707     13705     13711
     13710     13707     13705     13711     13715     13728     13731     13732
     13715     13728     13731     13733     13715     13728     13731     13738
     13716     13715     13720     13721     13716     13715     13720     13722
     13716     13715     13720     13723     13716     13715     13724     13725
     13716     13715     13724     13726     13716     13715     13724     13727
     13716     13715     13728     13729     13716     13715     13728     13730
     13716     13715     13728     13731     13717     13716     13715     13720
     13717     13716     13715     13724     13717     13716     13715     13728
     13718     13716     13715     13720     13718     13716     13715     13724
     13718     13716     13715     13728     13719     13716     13715     13720
     13719     13716     13715     13724     13719     13716     13715     13728
     13720     13715     13724     13725     13720     13715     13724     13726
     13720     13715     13724     13727     13720     13715     13728     13729
     13720     13715     13728     13730     13720     13715     13728     13731
     13721     13720     13715     13724     13721     13720     13715     13728
     13722     13720     13715     13724     13722     13720     13715     13728
     13723     13720     13715     13724     13723     13720     13715     13728
     13724     13715     13728     13729     13724     13715     13728     13730
     13724     13715     13728     13731     13725     13724     13715     13728
     13726     13724     13715     13728     13727     13724     13715     13728
     13728     13731     13738     13734     13729     13728     13731     13732
     13729     13728     13731     13733     13729     13728     13731     13738
     13730     13728     13731     13732     13730     13728     13731     13733
     13730     13728     13731     13738     13731     13738     13734     13735
     13731     13738     13734     13736     13731     13738     13734     13737
     13732     13731     13738     13734     13733     13731     13738     13734
     13734     13737     13739     13740     13734     13737     13739     13741
     13734     13737     13739     13744     13735     13734     13737     13739
     13736     13734     13737     13739     13737     13739     13744     13742
     13737     13739     13744     13745     13737     13739     13744     13746
     13738     13734     13737     13739     13739     13744     13742     13743
     13739     13744     13742     13794     13739     13744     13746     13747
     13739     13744     13746     13748     13739     13744     13746     13750
     13740     13739     13744     13742     13740     13739     13744     13745
     13740     13739     13744     13746     13741     13739     13744     13742
     13741     13739     13744     13745     13741     13739     13744     13746
     13742     13744     13746     13747     13742     13744     13746     13748
     13742     13744     13746     13750     13742     13794     13796     13797
     13742     13794     13796     13798     13742     13794     13796     13799
     13743     13742     13744     13745     13743     13742     13744     13746
     13743     13742     13794     13795     13743     13742     13794     13796
     13744     13742     13794     13795     13744     13742     13794     13796
     13744     13746     13748     13749     13744     13746     13750     13751
     13744     13746     13750     13752     13745     13744     13742     13794
     13745     13744     13746     13747     13745     13744     13746     13748
     13745     13744     13746     13750     13746     13744     13742     13794
     13746     13750     13752     13753     13746     13750     13752     13754
     13747     13746     13748     13749     13747     13746     13750     13751
     13747     13746     13750     13752     13748     13746     13750     13751
     13748     13746     13750     13752     13749     13748     13746     13750
     13750     13752     13754     13755     13750     13752     13754     13756
     13750     13752     13754     13757     13751     13750     13752     13753
     13751     13750     13752     13754     13752     13754     13757     13758
     13752     13754     13757     13759     13752     13754     13757     13760
     13753     13752     13754     13755     13753     13752     13754     13756
     13753     13752     13754     13757     13754     13757     13760     13761
     13754     13757     13760     13762     13754     13757     13760     13763
     13755     13754     13757     13758     13755     13754     13757     13759
     13755     13754     13757     13760     13756     13754     13757     13758
     13756     13754     13757     13759     13756     13754     13757     13760
     13757     13760     13763     13764     13757     13760     13763     13765
     13757     13760     13763     13766     13758     13757     13760     13761
     13758     13757     13760     13762     13758     13757     13760     13763
     13759     13757     13760     13761     13759     13757     13760     13762
     13759     13757     13760     13763     13760     13763     13766     13767
     13760     13763     13766     13768     13760     13763     13766     13769
     13761     13760     13763     13764     13761     13760     13763     13765
     13761     13760     13763     13766     13762     13760     13763     13764
     13762     13760     13763     13765     13762     13760     13763     13766
     13763     13766     13769     13770     13763     13766     13769     13771
     13763     13766     13769     13772     13764     13763     13766     13767
     13764     13763     13766     13768     13764     13763     13766     13769
     13765     13763     13766     13767     13765     13763     13766     13768
     13765     13763     13766     13769     13766     13769     13772     13773
     13766     13769     13772     13774     13766     13769     13772     13775
     13767     13766     13769     13770     13767     13766     13769     13771
     13767     13766     13769     13772     13768     13766     13769     13770
     13768     13766     13769     13771     13768     13766     13769     13772
     13769     13772     13775     13776     13769     13772     13775     13777
     13769     13772     13775     13778     13770     13769     13772     13773
     13770     13769     13772     13774     13770     13769     13772     13775
     13771     13769     13772     13773     13771     13769     13772     13774
     13771     13769     13772     13775     13772     13775     13778     13779
     13772     13775     13778     13780     13772     13775     13778     13781
     13773     13772     13775     13776     13773     13772     13775     13777
     13773     13772     13775     13778     13774     13772     13775     13776
     13774     13772     13775     13777     13774     13772     13775     13778
     13775     13778     13781     13782     13775     13778     13781     13783
     13775     13778     13781     13784     13776     13775     13778     13779
     13776     13775     13778     13780     13776     13775     13778     13781
     13777     13775     13778     13779     13777     13775     13778     13780
     13777     13775     13778     13781     13778     13781     13784     13785
     13778     13781     13784     13786     13778     13781     13784     13787
     13779     13778     13781     13782     13779     13778     13781     13783
     13779     13778     13781     13784     13780     13778     13781     13782
     13780     13778     13781     13783     13780     13778     13781     13784
     13781     13784     13787     13788     13781     13784     13787     13789
     13781     13784     13787     13790     13782     13781     13784     13785
     13782     13781     13784     13786     13782     13781     13784     13787
     13783     13781     13784     13785     13783     13781     13784     13786
     13783     13781     13784     13787     13784     13787     13790     13791
     13784     13787     13790     13792     13784     13787     13790     13793
     13785     13784     13787     13788     13785     13784     13787     13789
     13785     13784     13787     13790     13786     13784     13787     13788
     13786     13784     13787     13789     13786     13784     13787     13790
     13788     13787     13790     13791     13788     13787     13790     13792
     13788     13787     13790     13793     13789     13787     13790     13791
     13789     13787     13790     13792     13789     13787     13790     13793
     13794     13796     13799     13800     13794     13796     13799     13801
     13794     13796     13799     13802     13795     13794     13796     13797
     13795     13794     13796     13798     13795     13794     13796     13799
     13796     13799     13802     13803     13796     13799     13802     13804
     13796     13799     13802     13805     13797     13796     13799     13800
     13797     13796     13799     13801     13797     13796     13799     13802
     13798     13796     13799     13800     13798     13796     13799     13801
     13798     13796     13799     13802     13799     13802     13805     13806
     13799     13802     13805     13807     13799     13802     13805     13808
     13800     13799     13802     13803     13800     13799     13802     13804
     13800     13799     13802     13805     13801     13799     13802     13803
     13801     13799     13802     13804     13801     13799     13802     13805
     13802     13805     13808     13809     13802     13805     13808     13810
     13802     13805     13808     13811     13803     13802     13805     13806
     13803     13802     13805     13807     13803     13802     13805     13808
     13804     13802     13805     13806     13804     13802     13805     13807
     13804     13802     13805     13808     13805     13808     13811     13812
     13805     13808     13811     13813     13805     13808     13811     13814
     13806     13805     13808     13809     13806     13805     13808     13810
     13806     13805     13808     13811     13807     13805     13808     13809
     13807     13805     13808     13810     13807     13805     13808     13811
     13808     13811     13814     13815     13808     13811     13814     13816
     13808     13811     13814     13817     13809     13808     13811     13812
     13809     13808     13811     13813     13809     13808     13811     13814
     13810     13808     13811     13812     13810     13808     13811     13813
     13810     13808     13811     13814     13811     13814     13817     13818
     13811     13814     13817     13819     13812     13811     13814     13815
     13812     13811     13814     13816     13812     13811     13814     13817
     13813     13811     13814     13815     13813     13811     13814     13816
     13813     13811     13814     13817     13814     13817     13819     13820
     13814     13817     13819     13821     13815     13814     13817     13818
     13815     13814     13817     13819     13816     13814     13817     13818
     13816     13814     13817     13819     13817     13819     13821     13822
     13817     13819     13821     13823     13817     13819     13821     13824
     13818     13817     13819     13820     13818     13817     13819     13821
     13819     13821     13824     13825     13819     13821     13824     13826
     13819     13821     13824     13827     13820     13819     13821     13822
     13820     13819     13821     13823     13820     13819     13821     13824
     13821     13824     13827     13828     13821     13824     13827     13829
     13821     13824     13827     13830     13822     13821     13824     13825
     13822     13821     13824     13826     13822     13821     13824     13827
     13823     13821     13824     13825     13823     13821     13824     13826
     13823     13821     13824     13827     13824     13827     13830     13831
     13824     13827     13830     13832     13824     13827     13830     13833
     13825     13824     13827     13828     13825     13824     13827     13829
     13825     13824     13827     13830     13826     13824     13827     13828
     13826     13824     13827     13829     13826     13824     13827     13830
     13827     13830     13833     13834     13827     13830     13833     13835
     13827     13830     13833     13836     13828     13827     13830     13831
     13828     13827     13830     13832     13828     13827     13830     13833
     13829     13827     13830     13831     13829     13827     13830     13832
     13829     13827     13830     13833     13830     13833     13836     13837
     13830     13833     13836     13838     13830     13833     13836     13839
     13831     13830     13833     13834     13831     13830     13833     13835
     13831     13830     13833     13836     13832     13830     13833     13834
     13832     13830     13833     13835     13832     13830     13833     13836
     13833     13836     13839     13840     13833     13836     13839     13841
     13833     13836     13839     13842     13834     13833     13836     13837
     13834     13833     13836     13838     13834     13833     13836     13839
     13835     13833     13836     13837     13835     13833     13836     13838
     13835     13833     13836     13839     13836     13839     13842     13843
     13836     13839     13842     13844     13836     13839     13842     13845
     13837     13836     13839     13840     13837     13836     13839     13841
     13837     13836     13839     13842     13838     13836     13839     13840
     13838     13836     13839     13841     13838     13836     13839     13842
     13840     13839     13842     13843     13840     13839     13842     13844
     13840     13839     13842     13845     13841     13839     13842     13843
     13841     13839     13842     13844     13841     13839     13842     13845
     13846     13850     13852     13853     13846     13850     13852     13854
     13846     13850     13855     13856     13846     13850     13855     13857
     13846     13850     13855     13861     13847     13846     13850     13851
     13847     13846     13850     13852     13847     13846     13850     13855
     13848     13846     13850     13851     13848     13846     13850     13852
     13848     13846     13850     13855     13849     13846     13850     13851
     13849     13846     13850     13852     13849     13846     13850     13855
     13850     13855     13861     13858     13851     13850     13852     13853
     13851     13850     13852     13854     13851     13850     13855     13856
     13851     13850     13855     13857     13851     13850     13855     13861
     13852     13850     13855     13856     13852     13850     13855     13857
     13852     13850     13855     13861     13853     13852     13850     13855
     13854     13852     13850     13855     13855     13861     13858     13859
     13855     13861     13858     13860     13855     13861     13858     13862
     13856     13855     13861     13858     13857     13855     13861     13858
     13858     13862     13863     13864     13858     13862     13863     13865
     13858     13862     13863     13866     13859     13858     13862     13863
     13860     13858     13862     13863     13861     13858     13862     13863
     13862     13863     13866     13867     13862     13863     13866     13868
     13862     13863     13866     13874     13863     13866     13868     13869
     13863     13866     13874     13875     13863     13866     13874     13876
     13863     13866     13874     13877     13864     13863     13866     13867
     13864     13863     13866     13868     13864     13863     13866     13874
     13865     13863     13866     13867     13865     13863     13866     13868
     13865     13863     13866     13874     13866     13868     13869     13870
     13866     13868     13869     13871     13866     13874     13877     13878
     13867     13866     13868     13869     13867     13866     13874     13875
     13867     13866     13874     13876     13867     13866     13874     13877
     13868     13866     13874     13875     13868     13866     13874     13876
     13868     13866     13874     13877     13868     13869     13871     13872
     13868     13869     13871     13873     13868     13869     13871     13883
     13869     13868     13866     13874     13869     13871     13883     13884
     13869     13871     13883     13885     13869     13871     13883     13886
     13870     13869     13871     13872     13870     13869     13871     13873
     13870     13869     13871     13883     13871     13883     13886     13887
     13871     13883     13886     13888     13871     13883     13886     13889
     13872     13871     13883     13884     13872     13871     13883     13885
     13872     13871     13883     13886     13873     13871     13883     13884
     13873     13871     13883     13885     13873     13871     13883     13886
     13874     13877     13878     13879     13874     13877     13878     13880
     13875     13874     13877     13878     13876     13874     13877     13878
     13877     13878     13880     13881     13877     13878     13880     13882
     13877     13878     13880     13930     13878     13880     13930     13931
     13878     13880     13930     13932     13878     13880     13930     13933
     13879     13878     13880     13881     13879     13878     13880     13882
     13879     13878     13880     13930     13880     13930     13933     13934
     13880     13930     13933     13935     13880     13930     13933     13936
     13881     13880     13930     13931     13881     13880     13930     13932
     13881     13880     13930     13933     13882     13880     13930     13931
     13882     13880     13930     13932     13882     13880     13930     13933
     13883     13886     13889     13890     13883     13886     13889     13891
     13884     13883     13886     13887     13884     13883     13886     13888
     13884     13883     13886     13889     13885     13883     13886     13887
     13885     13883     13886     13888     13885     13883     13886     13889
     13886     13889     13891     13892     13886     13889     13891     13893
     13887     13886     13889     13890     13887     13886     13889     13891
     13888     13886     13889     13890     13888     13886     13889     13891
     13889     13891     13893     13894     13889     13891     13893     13895
     13889     13891     13893     13896     13890     13889     13891     13892
     13890     13889     13891     13893     13891     13893     13896     13897
     13891     13893     13896     13898     13892     13891     13893     13894
     13892     13891     13893     13895     13892     13891     13893     13896
     13893     13896     13898     13899     13893     13896     13898     13900
     13894     13893     13896     13897     13894     13893     13896     13898
     13895     13893     13896     13897     13895     13893     13896     13898
     13896     13898     13900     13901     13896     13898     13900     13902
     13896     13898     13900     13903     13897     13896     13898     13899
     13897     13896     13898     13900     13898     13900     13903     13904
     13898     13900     13903     13905     13899     13898     13900     13901
     13899     13898     13900     13902     13899     13898     13900     13903
     13900     13903     13905     13906     13900     13903     13905     13907
     13901     13900     13903     13904     13901     13900     13903     13905
     13902     13900     13903     13904     13902     13900     13903     13905
     13903     13905     13907     13908     13903     13905     13907     13909
     13903     13905     13907     13910     13904     13903     13905     13906
     13904     13903     13905     13907     13905     13907     13910     13911
     13905     13907     13910     13912     13906     13905     13907     13908
     13906     13905     13907     13909     13906     13905     13907     13910
     13907     13910     13912     13913     13907     13910     13912     13914
     13908     13907     13910     13911     13908     13907     13910     13912
     13909     13907     13910     13911     13909     13907     13910     13912
     13910     13912     13914     13915     13910     13912     13914     13916
     13910     13912     13914     13917     13911     13910     13912     13913
     13911     13910     13912     13914     13912     13914     13917     13918
     13912     13914     13917     13919     13912     13914     13917     13920
     13913     13912     13914     13915     13913     13912     13914     13916
     13913     13912     13914     13917     13914     13917     13920     13921
     13914     13917     13920     13922     13914     13917     13920     13923
     13915     13914     13917     13918     13915     13914     13917     13919
     13915     13914     13917     13920     13916     13914     13917     13918
     13916     13914     13917     13919     13916     13914     13917     13920
     13917     13920     13923     13924     13917     13920     13923     13925
     13917     13920     13923     13926     13918     13917     13920     13921
     13918     13917     13920     13922     13918     13917     13920     13923
     13919     13917     13920     13921     13919     13917     13920     13922
     13919     13917     13920     13923     13920     13923     13926     13927
     13920     13923     13926     13928     13920     13923     13926     13929
     13921     13920     13923     13924     13921     13920     13923     13925
     13921     13920     13923     13926     13922     13920     13923     13924
     13922     13920     13923     13925     13922     13920     13923     13926
     13924     13923     13926     13927     13924     13923     13926     13928
     13924     13923     13926     13929     13925     13923     13926     13927
     13925     13923     13926     13928     13925     13923     13926     13929
     13930     13933     13936     13937     13930     13933     13936     13938
     13930     13933     13936     13939     13931     13930     13933     13934
     13931     13930     13933     13935     13931     13930     13933     13936
     13932     13930     13933     13934     13932     13930     13933     13935
     13932     13930     13933     13936     13933     13936     13939     13940
     13933     13936     13939     13941     13933     13936     13939     13942
     13934     13933     13936     13937     13934     13933     13936     13938
     13934     13933     13936     13939     13935     13933     13936     13937
     13935     13933     13936     13938     13935     13933     13936     13939
     13936     13939     13942     13943     13936     13939     13942     13944
     13936     13939     13942     13945     13937     13936     13939     13940
     13937     13936     13939     13941     13937     13936     13939     13942
     13938     13936     13939     13940     13938     13936     13939     13941
     13938     13936     13939     13942     13939     13942     13945     13946
     13939     13942     13945     13947     13939     13942     13945     13948
     13940     13939     13942     13943     13940     13939     13942     13944
     13940     13939     13942     13945     13941     13939     13942     13943
     13941     13939     13942     13944     13941     13939     13942     13945
     13942     13945     13948     13949     13942     13945     13948     13950
     13942     13945     13948     13951     13943     13942     13945     13946
     13943     13942     13945     13947     13943     13942     13945     13948
     13944     13942     13945     13946     13944     13942     13945     13947
     13944     13942     13945     13948     13945     13948     13951     13952
     13945     13948     13951     13953     13945     13948     13951     13954
     13946     13945     13948     13949     13946     13945     13948     13950
     13946     13945     13948     13951     13947     13945     13948     13949
     13947     13945     13948     13950     13947     13945     13948     13951
     13948     13951     13954     13955     13948     13951     13954     13956
     13948     13951     13954     13957     13949     13948     13951     13952
     13949     13948     13951     13953     13949     13948     13951     13954
     13950     13948     13951     13952     13950     13948     13951     13953
     13950     13948     13951     13954     13951     13954     13957     13958
     13951     13954     13957     13959     13951     13954     13957     13960
     13952     13951     13954     13955     13952     13951     13954     13956
     13952     13951     13954     13957     13953     13951     13954     13955
     13953     13951     13954     13956     13953     13951     13954     13957
     13954     13957     13960     13961     13954     13957     13960     13962
     13954     13957     13960     13963     13955     13954     13957     13958
     13955     13954     13957     13959     13955     13954     13957     13960
     13956     13954     13957     13958     13956     13954     13957     13959
     13956     13954     13957     13960     13957     13960     13963     13964
     13957     13960     13963     13965     13957     13960     13963     13966
     13958     13957     13960     13961     13958     13957     13960     13962
     13958     13957     13960     13963     13959     13957     13960     13961
     13959     13957     13960     13962     13959     13957     13960     13963
     13960     13963     13966     13967     13960     13963     13966     13968
     13960     13963     13966     13969     13961     13960     13963     13964
     13961     13960     13963     13965     13961     13960     13963     13966
     13962     13960     13963     13964     13962     13960     13963     13965
     13962     13960     13963     13966     13963     13966     13969     13970
     13963     13966     13969     13971     13963     13966     13969     13972
     13964     13963     13966     13967     13964     13963     13966     13968
     13964     13963     13966     13969     13965     13963     13966     13967
     13965     13963     13966     13968     13965     13963     13966     13969
     13966     13969     13972     13973     13966     13969     13972     13974
     13966     13969     13972     13975     13967     13966     13969     13970
     13967     13966     13969     13971     13967     13966     13969     13972
     13968     13966     13969     13970     13968     13966     13969     13971
     13968     13966     13969     13972     13969     13972     13975     13976
     13969     13972     13975     13977     13969     13972     13975     13978
     13970     13969     13972     13973     13970     13969     13972     13974
     13970     13969     13972     13975     13971     13969     13972     13973
     13971     13969     13972     13974     13971     13969     13972     13975
     13973     13972     13975     13976     13973     13972     13975     13977
     13973     13972     13975     13978     13974     13972     13975     13976
     13974     13972     13975     13977     13974     13972     13975     13978
     13979     13983     13986     13987     13979     13983     13986     13988
     13979     13983     13986     13992     13980     13979     13983     13984
     13980     13979     13983     13985     13980     13979     13983     13986
     13981     13979     13983     13984     13981     13979     13983     13985
     13981     13979     13983     13986     13982     13979     13983     13984
     13982     13979     13983     13985     13982     13979     13983     13986
     13983     13986     13992     13989     13984     13983     13986     13987
     13984     13983     13986     13988     13984     13983     13986     13992
     13985     13983     13986     13987     13985     13983     13986     13988
     13985     13983     13986     13992     13986     13992     13989     13990
     13986     13992     13989     13991     13986     13992     13989     13993
     13987     13986     13992     13989     13988     13986     13992     13989
     13989     13993     13994     13995     13989     13993     13994     13996
     13989     13993     13994     13997     13990     13989     13993     13994
     13991     13989     13993     13994     13992     13989     13993     13994
     13993     13994     13997     13998     13993     13994     13997     13999
     13993     13994     13997     14005     13994     13997     13999     14000
     13994     13997     14005     14006     13994     13997     14005     14007
     13994     13997     14005     14008     13995     13994     13997     13998
     13995     13994     13997     13999     13995     13994     13997     14005
     13996     13994     13997     13998     13996     13994     13997     13999
     13996     13994     13997     14005     13997     13999     14000     14001
     13997     13999     14000     14002     13997     14005     14008     14009
     13998     13997     13999     14000     13998     13997     14005     14006
     13998     13997     14005     14007     13998     13997     14005     14008
     13999     13997     14005     14006     13999     13997     14005     14007
     13999     13997     14005     14008     13999     14000     14002     14003
     13999     14000     14002     14004     13999     14000     14002     14014
     14000     13999     13997     14005     14000     14002     14014     14015
     14000     14002     14014     14016     14000     14002     14014     14017
     14001     14000     14002     14003     14001     14000     14002     14004
     14001     14000     14002     14014     14002     14014     14017     14018
     14002     14014     14017     14019     14002     14014     14017     14020
     14003     14002     14014     14015     14003     14002     14014     14016
     14003     14002     14014     14017     14004     14002     14014     14015
     14004     14002     14014     14016     14004     14002     14014     14017
     14005     14008     14009     14010     14005     14008     14009     14011
     14006     14005     14008     14009     14007     14005     14008     14009
     14008     14009     14011     14012     14008     14009     14011     14013
     14008     14009     14011     14061     14009     14011     14061     14062
     14009     14011     14061     14063     14009     14011     14061     14064
     14010     14009     14011     14012     14010     14009     14011     14013
     14010     14009     14011     14061     14011     14061     14064     14065
     14011     14061     14064     14066     14011     14061     14064     14067
     14012     14011     14061     14062     14012     14011     14061     14063
     14012     14011     14061     14064     14013     14011     14061     14062
     14013     14011     14061     14063     14013     14011     14061     14064
     14014     14017     14020     14021     14014     14017     14020     14022
     14015     14014     14017     14018     14015     14014     14017     14019
     14015     14014     14017     14020     14016     14014     14017     14018
     14016     14014     14017     14019     14016     14014     14017     14020
     14017     14020     14022     14023     14017     14020     14022     14024
     14018     14017     14020     14021     14018     14017     14020     14022
     14019     14017     14020     14021     14019     14017     14020     14022
     14020     14022     14024     14025     14020     14022     14024     14026
     14020     14022     14024     14027     14021     14020     14022     14023
     14021     14020     14022     14024     14022     14024     14027     14028
     14022     14024     14027     14029     14023     14022     14024     14025
     14023     14022     14024     14026     14023     14022     14024     14027
     14024     14027     14029     14030     14024     14027     14029     14031
     14025     14024     14027     14028     14025     14024     14027     14029
     14026     14024     14027     14028     14026     14024     14027     14029
     14027     14029     14031     14032     14027     14029     14031     14033
     14027     14029     14031     14034     14028     14027     14029     14030
     14028     14027     14029     14031     14029     14031     14034     14035
     14029     14031     14034     14036     14030     14029     14031     14032
     14030     14029     14031     14033     14030     14029     14031     14034
     14031     14034     14036     14037     14031     14034     14036     14038
     14032     14031     14034     14035     14032     14031     14034     14036
     14033     14031     14034     14035     14033     14031     14034     14036
     14034     14036     14038     14039     14034     14036     14038     14040
     14034     14036     14038     14041     14035     14034     14036     14037
     14035     14034     14036     14038     14036     14038     14041     14042
     14036     14038     14041     14043     14037     14036     14038     14039
     14037     14036     14038     14040     14037     14036     14038     14041
     14038     14041     14043     14044     14038     14041     14043     14045
     14039     14038     14041     14042     14039     14038     14041     14043
     14040     14038     14041     14042     14040     14038     14041     14043
     14041     14043     14045     14046     14041     14043     14045     14047
     14041     14043     14045     14048     14042     14041     14043     14044
     14042     14041     14043     14045     14043     14045     14048     14049
     14043     14045     14048     14050     14043     14045     14048     14051
     14044     14043     14045     14046     14044     14043     14045     14047
     14044     14043     14045     14048     14045     14048     14051     14052
     14045     14048     14051     14053     14045     14048     14051     14054
     14046     14045     14048     14049     14046     14045     14048     14050
     14046     14045     14048     14051     14047     14045     14048     14049
     14047     14045     14048     14050     14047     14045     14048     14051
     14048     14051     14054     14055     14048     14051     14054     14056
     14048     14051     14054     14057     14049     14048     14051     14052
     14049     14048     14051     14053     14049     14048     14051     14054
     14050     14048     14051     14052     14050     14048     14051     14053
     14050     14048     14051     14054     14051     14054     14057     14058
     14051     14054     14057     14059     14051     14054     14057     14060
     14052     14051     14054     14055     14052     14051     14054     14056
     14052     14051     14054     14057     14053     14051     14054     14055
     14053     14051     14054     14056     14053     14051     14054     14057
     14055     14054     14057     14058     14055     14054     14057     14059
     14055     14054     14057     14060     14056     14054     14057     14058
     14056     14054     14057     14059     14056     14054     14057     14060
     14061     14064     14067     14068     14061     14064     14067     14069
     14061     14064     14067     14070     14062     14061     14064     14065
     14062     14061     14064     14066     14062     14061     14064     14067
     14063     14061     14064     14065     14063     14061     14064     14066
     14063     14061     14064     14067     14064     14067     14070     14071
     14064     14067     14070     14072     14064     14067     14070     14073
     14065     14064     14067     14068     14065     14064     14067     14069
     14065     14064     14067     14070     14066     14064     14067     14068
     14066     14064     14067     14069     14066     14064     14067     14070
     14067     14070     14073     14074     14067     14070     14073     14075
     14067     14070     14073     14076     14068     14067     14070     14071
     14068     14067     14070     14072     14068     14067     14070     14073
     14069     14067     14070     14071     14069     14067     14070     14072
     14069     14067     14070     14073     14070     14073     14076     14077
     14070     14073     14076     14078     14070     14073     14076     14079
     14071     14070     14073     14074     14071     14070     14073     14075
     14071     14070     14073     14076     14072     14070     14073     14074
     14072     14070     14073     14075     14072     14070     14073     14076
     14073     14076     14079     14080     14073     14076     14079     14081
     14073     14076     14079     14082     14074     14073     14076     14077
     14074     14073     14076     14078     14074     14073     14076     14079
     14075     14073     14076     14077     14075     14073     14076     14078
     14075     14073     14076     14079     14076     14079     14082     14083
     14076     14079     14082     14084     14076     14079     14082     14085
     14077     14076     14079     14080     14077     14076     14079     14081
     14077     14076     14079     14082     14078     14076     14079     14080
     14078     14076     14079     14081     14078     14076     14079     14082
     14079     14082     14085     14086     14079     14082     14085     14087
     14079     14082     14085     14088     14080     14079     14082     14083
     14080     14079     14082     14084     14080     14079     14082     14085
     14081     14079     14082     14083     14081     14079     14082     14084
     14081     14079     14082     14085     14082     14085     14088     14089
     14082     14085     14088     14090     14082     14085     14088     14091
     14083     14082     14085     14086     14083     14082     14085     14087
     14083     14082     14085     14088     14084     14082     14085     14086
     14084     14082     14085     14087     14084     14082     14085     14088
     14085     14088     14091     14092     14085     14088     14091     14093
     14085     14088     14091     14094     14086     14085     14088     14089
     14086     14085     14088     14090     14086     14085     14088     14091
     14087     14085     14088     14089     14087     14085     14088     14090
     14087     14085     14088     14091     14088     14091     14094     14095
     14088     14091     14094     14096     14088     14091     14094     14097
     14089     14088     14091     14092     14089     14088     14091     14093
     14089     14088     14091     14094     14090     14088     14091     14092
     14090     14088     14091     14093     14090     14088     14091     14094
     14091     14094     14097     14098     14091     14094     14097     14099
     14091     14094     14097     14100     14092     14091     14094     14095
     14092     14091     14094     14096     14092     14091     14094     14097
     14093     14091     14094     14095     14093     14091     14094     14096
     14093     14091     14094     14097     14094     14097     14100     14101
     14094     14097     14100     14102     14094     14097     14100     14103
     14095     14094     14097     14098     14095     14094     14097     14099
     14095     14094     14097     14100     14096     14094     14097     14098
     14096     14094     14097     14099     14096     14094     14097     14100
     14097     14100     14103     14104     14097     14100     14103     14105
     14097     14100     14103     14106     14098     14097     14100     14101
     14098     14097     14100     14102     14098     14097     14100     14103
     14099     14097     14100     14101     14099     14097     14100     14102
     14099     14097     14100     14103     14100     14103     14106     14107
     14100     14103     14106     14108     14100     14103     14106     14109
     14101     14100     14103     14104     14101     14100     14103     14105
     14101     14100     14103     14106     14102     14100     14103     14104
     14102     14100     14103     14105     14102     14100     14103     14106
     14104     14103     14106     14107     14104     14103     14106     14108
     14104     14103     14106     14109     14105     14103     14106     14107
     14105     14103     14106     14108     14105     14103     14106     14109
     14110     14114     14117     14118     14110     14114     14117     14148
     14110     14156     14153     14148     14110     14156     14153     14154
     14110     14156     14153     14155     14111     14110     14112     14113
     14111     14110     14114     14115     14111     14110     14114     14116
     14111     14110     14114     14117     14111     14110     14156     14153
     14111     14110     14156     14157     14111     14110     14156     14158
     14112     14110     14114     14115     14112     14110     14114     14116
     14112     14110     14114     14117     14112     14110     14156     14153
     14112     14110     14156     14157     14112     14110     14156     14158
     14113     14112     14110     14114     14113     14112     14110     14156
     14114     14110     14156     14153     14114     14110     14156     14157
     14114     14110     14156     14158     14114     14117     14118     14119
     14114     14117     14118     14120     14114     14117     14148     14146
     14114     14117     14148     14149     14114     14117     14148     14153
     14115     14114     14110     14156     14115     14114     14117     14118
     14115     14114     14117     14148     14116     14114     14110     14156
     14116     14114     14117     14118     14116     14114     14117     14148
     14117     14114     14110     14156     14117     14118     14120     14121
     14117     14118     14120     14122     14117     14118     14120     14123
     14117     14148     14146     14123     14117     14148     14146     14143
     14117     14148     14146     14147     14117     14148     14149     14150
     14117     14148     14149     14151     14117     14148     14149     14152
     14117     14148     14153     14154     14117     14148     14153     14155
     14117     14148     14153     14156     14118     14117     14148     14146
     14118     14117     14148     14149     14118     14117     14148     14153
     14118     14120     14123     14124     14118     14120     14123     14125
     14118     14120     14123     14146     14119     14118     14117     14148
     14119     14118     14120     14121     14119     14118     14120     14122
     14119     14118     14120     14123     14120     14118     14117     14148
     14120     14123     14125     14126     14120     14123     14125     14127
     14120     14123     14125     14135     14120     14123     14146     14143
     14120     14123     14146     14147     14120     14123     14146     14148
     14121     14120     14123     14124     14121     14120     14123     14125
     14121     14120     14123     14146     14122     14120     14123     14124
     14122     14120     14123     14125     14122     14120     14123     14146
     14123     14125     14127     14128     14123     14125     14127     14129
     14123     14125     14127     14130     14123     14125     14135     14133
     14123     14125     14135     14136     14123     14125     14135     14140
     14123     14146     14143     14140     14123     14146     14143     14144
     14123     14146     14143     14145     14123     14146     14148     14149
     14123     14146     14148     14153     14124     14123     14125     14126
     14124     14123     14125     14127     14124     14123     14125     14135
     14124     14123     14146     14143     14124     14123     14146     14147
     14124     14123     14146     14148     14125     14123     14146     14143
     14125     14123     14146     14147     14125     14123     14146     14148
     14125     14127     14130     14131     14125     14127     14130     14132
     14125     14127     14130     14133     14125     14135     14133     14130
     14125     14135     14133     14134     14125     14135     14133     14159
     14125     14135     14136     14137     14125     14135     14136     14138
     14125     14135     14136     14139     14125     14135     14140     14141
     14125     14135     14140     14142     14125     14135     14140     14143
     14126     14125     14123     14146     14126     14125     14127     14128
     14126     14125     14127     14129     14126     14125     14127     14130
     14126     14125     14135     14133     14126     14125     14135     14136
     14126     14125     14135     14140     14127     14125     14123     14146
     14127     14125     14135     14133     14127     14125     14135     14136
     14127     14125     14135     14140     14127     14130     14133     14134
     14127     14130     14133     14135     14127     14130     14133     14159
     14128     14127     14125     14135     14128     14127     14130     14131
     14128     14127     14130     14132     14128     14127     14130     14133
     14129     14127     14125     14135     14129     14127     14130     14131
     14129     14127     14130     14132     14129     14127     14130     14133
     14130     14127     14125     14135     14130     14133     14135     14136
     14130     14133     14135     14140     14130     14133     14159     14160
     14130     14133     14159     14161     14130     14133     14159     14165
     14131     14130     14133     14134     14131     14130     14133     14135
     14131     14130     14133     14159     14132     14130     14133     14134
     14132     14130     14133     14135     14132     14130     14133     14159
     14133     14135     14136     14137     14133     14135     14136     14138
     14133     14135     14136     14139     14133     14135     14140     14141
     14133     14135     14140     14142     14133     14135     14140     14143
     14133     14159     14161     14162     14133     14159     14161     14163
     14133     14159     14161     14164     14133     14159     14165     14166
     14133     14159     14165     14167     14133     14159     14165     14168
     14134     14133     14135     14136     14134     14133     14135     14140
     14134     14133     14159     14160     14134     14133     14159     14161
     14134     14133     14159     14165     14135     14125     14123     14146
     14135     14133     14159     14160     14135     14133     14159     14161
     14135     14133     14159     14165     14135     14140     14143     14144
     14135     14140     14143     14145     14135     14140     14143     14146
     14136     14135     14133     14159     14136     14135     14140     14141
     14136     14135     14140     14142     14136     14135     14140     14143
     14137     14136     14135     14140     14138     14136     14135     14140
     14139     14136     14135     14140     14140     14135     14133     14159
     14140     14143     14146     14147     14140     14143     14146     14148
     14141     14140     14143     14144     14141     14140     14143     14145
     14141     14140     14143     14146     14142     14140     14143     14144
     14142     14140     14143     14145     14142     14140     14143     14146
     14143     14146     14148     14149     14143     14146     14148     14153
     14144     14143     14146     14147     14144     14143     14146     14148
     14145     14143     14146     14147     14145     14143     14146     14148
     14146     14148     14149     14150     14146     14148     14149     14151
     14146     14148     14149     14152     14146     14148     14153     14154
     14146     14148     14153     14155     14146     14148     14153     14156
     14147     14146     14148     14149     14147     14146     14148     14153
     14148     14153     14156     14157     14148     14153     14156     14158
     14149     14148     14153     14154     14149     14148     14153     14155
     14149     14148     14153     14156     14150     14149     14148     14153
     14151     14149     14148     14153     14152     14149     14148     14153
     14154     14153     14156     14157     14154     14153     14156     14158
     14155     14153     14156     14157     14155     14153     14156     14158
     14159     14165     14168     14169     14159     14165     14168     14170
     14159     14165     14168     14171     14160     14159     14161     14162
     14160     14159     14161     14163     14160     14159     14161     14164
     14160     14159     14165     14166     14160     14159     14165     14167
     14160     14159     14165     14168     14161     14159     14165     14166
     14161     14159     14165     14167     14161     14159     14165     14168
     14162     14161     14159     14165     14163     14161     14159     14165
     14164     14161     14159     14165     14165     14168     14171     14172
     14165     14168     14171     14173     14165     14168     14171     14174
     14166     14165     14168     14169     14166     14165     14168     14170
     14166     14165     14168     14171     14167     14165     14168     14169
     14167     14165     14168     14170     14167     14165     14168     14171
     14168     14171     14174     14175     14168     14171     14174     14176
     14168     14171     14174     14180     14169     14168     14171     14172
     14169     14168     14171     14173     14169     14168     14171     14174
     14170     14168     14171     14172     14170     14168     14171     14173
     14170     14168     14171     14174     14171     14174     14176     14177
     14171     14174     14176     14178     14171     14174     14176     14179
     14171     14174     14180     14181     14171     14174     14180     14182
     14171     14174     14180     14183     14172     14171     14174     14175
     14172     14171     14174     14176     14172     14171     14174     14180
     14173     14171     14174     14175     14173     14171     14174     14176
     14173     14171     14174     14180     14175     14174     14176     14177
     14175     14174     14176     14178     14175     14174     14176     14179
     14175     14174     14180     14181     14175     14174     14180     14182
     14175     14174     14180     14183     14176     14174     14180     14181
     14176     14174     14180     14182     14176     14174     14180     14183
     14177     14176     14174     14180     14178     14176     14174     14180
     14179     14176     14174     14180     14184     14188     14191     14192
     14184     14188     14191     14193     14184     14188     14191     14197
     14185     14184     14188     14189     14185     14184     14188     14190
     14185     14184     14188     14191     14186     14184     14188     14189
     14186     14184     14188     14190     14186     14184     14188     14191
     14187     14184     14188     14189     14187     14184     14188     14190
     14187     14184     14188     14191     14188     14191     14197     14194
     14189     14188     14191     14192     14189     14188     14191     14193
     14189     14188     14191     14197     14190     14188     14191     14192
     14190     14188     14191     14193     14190     14188     14191     14197
     14191     14197     14194     14195     14191     14197     14194     14196
     14191     14197     14194     14198     14192     14191     14197     14194
     14193     14191     14197     14194     14194     14198     14199     14200
     14194     14198     14199     14201     14194     14198     14199     14202
     14195     14194     14198     14199     14196     14194     14198     14199
     14197     14194     14198     14199     14198     14199     14202     14203
     14198     14199     14202     14204     14198     14199     14202     14210
     14199     14202     14204     14205     14199     14202     14210     14211
     14199     14202     14210     14212     14199     14202     14210     14213
     14200     14199     14202     14203     14200     14199     14202     14204
     14200     14199     14202     14210     14201     14199     14202     14203
     14201     14199     14202     14204     14201     14199     14202     14210
     14202     14204     14205     14206     14202     14204     14205     14207
     14202     14210     14213     14214     14203     14202     14204     14205
     14203     14202     14210     14211     14203     14202     14210     14212
     14203     14202     14210     14213     14204     14202     14210     14211
     14204     14202     14210     14212     14204     14202     14210     14213
     14204     14205     14207     14208     14204     14205     14207     14209
     14204     14205     14207     14219     14205     14204     14202     14210
     14205     14207     14219     14220     14205     14207     14219     14221
     14205     14207     14219     14222     14206     14205     14207     14208
     14206     14205     14207     14209     14206     14205     14207     14219
     14207     14219     14222     14223     14207     14219     14222     14224
     14207     14219     14222     14225     14208     14207     14219     14220
     14208     14207     14219     14221     14208     14207     14219     14222
     14209     14207     14219     14220     14209     14207     14219     14221
     14209     14207     14219     14222     14210     14213     14214     14215
     14210     14213     14214     14216     14211     14210     14213     14214
     14212     14210     14213     14214     14213     14214     14216     14217
     14213     14214     14216     14218     14213     14214     14216     14266
     14214     14216     14266     14267     14214     14216     14266     14268
     14214     14216     14266     14269     14215     14214     14216     14217
     14215     14214     14216     14218     14215     14214     14216     14266
     14216     14266     14269     14270     14216     14266     14269     14271
     14216     14266     14269     14272     14217     14216     14266     14267
     14217     14216     14266     14268     14217     14216     14266     14269
     14218     14216     14266     14267     14218     14216     14266     14268
     14218     14216     14266     14269     14219     14222     14225     14226
     14219     14222     14225     14227     14220     14219     14222     14223
     14220     14219     14222     14224     14220     14219     14222     14225
     14221     14219     14222     14223     14221     14219     14222     14224
     14221     14219     14222     14225     14222     14225     14227     14228
     14222     14225     14227     14229     14223     14222     14225     14226
     14223     14222     14225     14227     14224     14222     14225     14226
     14224     14222     14225     14227     14225     14227     14229     14230
     14225     14227     14229     14231     14225     14227     14229     14232
     14226     14225     14227     14228     14226     14225     14227     14229
     14227     14229     14232     14233     14227     14229     14232     14234
     14228     14227     14229     14230     14228     14227     14229     14231
     14228     14227     14229     14232     14229     14232     14234     14235
     14229     14232     14234     14236     14230     14229     14232     14233
     14230     14229     14232     14234     14231     14229     14232     14233
     14231     14229     14232     14234     14232     14234     14236     14237
     14232     14234     14236     14238     14232     14234     14236     14239
     14233     14232     14234     14235     14233     14232     14234     14236
     14234     14236     14239     14240     14234     14236     14239     14241
     14235     14234     14236     14237     14235     14234     14236     14238
     14235     14234     14236     14239     14236     14239     14241     14242
     14236     14239     14241     14243     14237     14236     14239     14240
     14237     14236     14239     14241     14238     14236     14239     14240
     14238     14236     14239     14241     14239     14241     14243     14244
     14239     14241     14243     14245     14239     14241     14243     14246
     14240     14239     14241     14242     14240     14239     14241     14243
     14241     14243     14246     14247     14241     14243     14246     14248
     14242     14241     14243     14244     14242     14241     14243     14245
     14242     14241     14243     14246     14243     14246     14248     14249
     14243     14246     14248     14250     14244     14243     14246     14247
     14244     14243     14246     14248     14245     14243     14246     14247
     14245     14243     14246     14248     14246     14248     14250     14251
     14246     14248     14250     14252     14246     14248     14250     14253
     14247     14246     14248     14249     14247     14246     14248     14250
     14248     14250     14253     14254     14248     14250     14253     14255
     14248     14250     14253     14256     14249     14248     14250     14251
     14249     14248     14250     14252     14249     14248     14250     14253
     14250     14253     14256     14257     14250     14253     14256     14258
     14250     14253     14256     14259     14251     14250     14253     14254
     14251     14250     14253     14255     14251     14250     14253     14256
     14252     14250     14253     14254     14252     14250     14253     14255
     14252     14250     14253     14256     14253     14256     14259     14260
     14253     14256     14259     14261     14253     14256     14259     14262
     14254     14253     14256     14257     14254     14253     14256     14258
     14254     14253     14256     14259     14255     14253     14256     14257
     14255     14253     14256     14258     14255     14253     14256     14259
     14256     14259     14262     14263     14256     14259     14262     14264
     14256     14259     14262     14265     14257     14256     14259     14260
     14257     14256     14259     14261     14257     14256     14259     14262
     14258     14256     14259     14260     14258     14256     14259     14261
     14258     14256     14259     14262     14260     14259     14262     14263
     14260     14259     14262     14264     14260     14259     14262     14265
     14261     14259     14262     14263     14261     14259     14262     14264
     14261     14259     14262     14265     14266     14269     14272     14273
     14266     14269     14272     14274     14266     14269     14272     14275
     14267     14266     14269     14270     14267     14266     14269     14271
     14267     14266     14269     14272     14268     14266     14269     14270
     14268     14266     14269     14271     14268     14266     14269     14272
     14269     14272     14275     14276     14269     14272     14275     14277
     14269     14272     14275     14278     14270     14269     14272     14273
     14270     14269     14272     14274     14270     14269     14272     14275
     14271     14269     14272     14273     14271     14269     14272     14274
     14271     14269     14272     14275     14272     14275     14278     14279
     14272     14275     14278     14280     14272     14275     14278     14281
     14273     14272     14275     14276     14273     14272     14275     14277
     14273     14272     14275     14278     14274     14272     14275     14276
     14274     14272     14275     14277     14274     14272     14275     14278
     14275     14278     14281     14282     14275     14278     14281     14283
     14275     14278     14281     14284     14276     14275     14278     14279
     14276     14275     14278     14280     14276     14275     14278     14281
     14277     14275     14278     14279     14277     14275     14278     14280
     14277     14275     14278     14281     14278     14281     14284     14285
     14278     14281     14284     14286     14278     14281     14284     14287
     14279     14278     14281     14282     14279     14278     14281     14283
     14279     14278     14281     14284     14280     14278     14281     14282
     14280     14278     14281     14283     14280     14278     14281     14284
     14281     14284     14287     14288     14281     14284     14287     14289
     14281     14284     14287     14290     14282     14281     14284     14285
     14282     14281     14284     14286     14282     14281     14284     14287
     14283     14281     14284     14285     14283     14281     14284     14286
     14283     14281     14284     14287     14284     14287     14290     14291
     14284     14287     14290     14292     14284     14287     14290     14293
     14285     14284     14287     14288     14285     14284     14287     14289
     14285     14284     14287     14290     14286     14284     14287     14288
     14286     14284     14287     14289     14286     14284     14287     14290
     14287     14290     14293     14294     14287     14290     14293     14295
     14287     14290     14293     14296     14288     14287     14290     14291
     14288     14287     14290     14292     14288     14287     14290     14293
     14289     14287     14290     14291     14289     14287     14290     14292
     14289     14287     14290     14293     14290     14293     14296     14297
     14290     14293     14296     14298     14290     14293     14296     14299
     14291     14290     14293     14294     14291     14290     14293     14295
     14291     14290     14293     14296     14292     14290     14293     14294
     14292     14290     14293     14295     14292     14290     14293     14296
     14293     14296     14299     14300     14293     14296     14299     14301
     14293     14296     14299     14302     14294     14293     14296     14297
     14294     14293     14296     14298     14294     14293     14296     14299
     14295     14293     14296     14297     14295     14293     14296     14298
     14295     14293     14296     14299     14296     14299     14302     14303
     14296     14299     14302     14304     14296     14299     14302     14305
     14297     14296     14299     14300     14297     14296     14299     14301
     14297     14296     14299     14302     14298     14296     14299     14300
     14298     14296     14299     14301     14298     14296     14299     14302
     14299     14302     14305     14306     14299     14302     14305     14307
     14299     14302     14305     14308     14300     14299     14302     14303
     14300     14299     14302     14304     14300     14299     14302     14305
     14301     14299     14302     14303     14301     14299     14302     14304
     14301     14299     14302     14305     14302     14305     14308     14309
     14302     14305     14308     14310     14302     14305     14308     14311
     14303     14302     14305     14306     14303     14302     14305     14307
     14303     14302     14305     14308     14304     14302     14305     14306
     14304     14302     14305     14307     14304     14302     14305     14308
     14305     14308     14311     14312     14305     14308     14311     14313
     14305     14308     14311     14314     14306     14305     14308     14309
     14306     14305     14308     14310     14306     14305     14308     14311
     14307     14305     14308     14309     14307     14305     14308     14310
     14307     14305     14308     14311     14309     14308     14311     14312
     14309     14308     14311     14313     14309     14308     14311     14314
     14310     14308     14311     14312     14310     14308     14311     14313
     14310     14308     14311     14314     14315     14319     14322     14323
     14315     14319     14322     14353     14315     14361     14358     14353
     14315     14361     14358     14359     14315     14361     14358     14360
     14316     14315     14317     14318     14316     14315     14319     14320
     14316     14315     14319     14321     14316     14315     14319     14322
     14316     14315     14361     14358     14316     14315     14361     14362
     14316     14315     14361     14363     14317     14315     14319     14320
     14317     14315     14319     14321     14317     14315     14319     14322
     14317     14315     14361     14358     14317     14315     14361     14362
     14317     14315     14361     14363     14318     14317     14315     14319
     14318     14317     14315     14361     14319     14315     14361     14358
     14319     14315     14361     14362     14319     14315     14361     14363
     14319     14322     14323     14324     14319     14322     14323     14325
     14319     14322     14353     14351     14319     14322     14353     14354
     14319     14322     14353     14358     14320     14319     14315     14361
     14320     14319     14322     14323     14320     14319     14322     14353
     14321     14319     14315     14361     14321     14319     14322     14323
     14321     14319     14322     14353     14322     14319     14315     14361
     14322     14323     14325     14326     14322     14323     14325     14327
     14322     14323     14325     14328     14322     14353     14351     14328
     14322     14353     14351     14348     14322     14353     14351     14352
     14322     14353     14354     14355     14322     14353     14354     14356
     14322     14353     14354     14357     14322     14353     14358     14359
     14322     14353     14358     14360     14322     14353     14358     14361
     14323     14322     14353     14351     14323     14322     14353     14354
     14323     14322     14353     14358     14323     14325     14328     14329
     14323     14325     14328     14330     14323     14325     14328     14351
     14324     14323     14322     14353     14324     14323     14325     14326
     14324     14323     14325     14327     14324     14323     14325     14328
     14325     14323     14322     14353     14325     14328     14330     14331
     14325     14328     14330     14332     14325     14328     14330     14340
     14325     14328     14351     14348     14325     14328     14351     14352
     14325     14328     14351     14353     14326     14325     14328     14329
     14326     14325     14328     14330     14326     14325     14328     14351
     14327     14325     14328     14329     14327     14325     14328     14330
     14327     14325     14328     14351     14328     14330     14332     14333
     14328     14330     14332     14334     14328     14330     14332     14335
     14328     14330     14340     14338     14328     14330     14340     14341
     14328     14330     14340     14345     14328     14351     14348     14345
     14328     14351     14348     14349     14328     14351     14348     14350
     14328     14351     14353     14354     14328     14351     14353     14358
     14329     14328     14330     14331     14329     14328     14330     14332
     14329     14328     14330     14340     14329     14328     14351     14348
     14329     14328     14351     14352     14329     14328     14351     14353
     14330     14328     14351     14348     14330     14328     14351     14352
     14330     14328     14351     14353     14330     14332     14335     14336
     14330     14332     14335     14337     14330     14332     14335     14338
     14330     14340     14338     14335     14330     14340     14338     14339
     14330     14340     14338     14364     14330     14340     14341     14342
     14330     14340     14341     14343     14330     14340     14341     14344
     14330     14340     14345     14346     14330     14340     14345     14347
     14330     14340     14345     14348     14331     14330     14328     14351
     14331     14330     14332     14333     14331     14330     14332     14334
     14331     14330     14332     14335     14331     14330     14340     14338
     14331     14330     14340     14341     14331     14330     14340     14345
     14332     14330     14328     14351     14332     14330     14340     14338
     14332     14330     14340     14341     14332     14330     14340     14345
     14332     14335     14338     14339     14332     14335     14338     14340
     14332     14335     14338     14364     14333     14332     14330     14340
     14333     14332     14335     14336     14333     14332     14335     14337
     14333     14332     14335     14338     14334     14332     14330     14340
     14334     14332     14335     14336     14334     14332     14335     14337
     14334     14332     14335     14338     14335     14332     14330     14340
     14335     14338     14340     14341     14335     14338     14340     14345
     14335     14338     14364     14365     14335     14338     14364     14366
     14335     14338     14364     14370     14336     14335     14338     14339
     14336     14335     14338     14340     14336     14335     14338     14364
     14337     14335     14338     14339     14337     14335     14338     14340
     14337     14335     14338     14364     14338     14340     14341     14342
     14338     14340     14341     14343     14338     14340     14341     14344
     14338     14340     14345     14346     14338     14340     14345     14347
     14338     14340     14345     14348     14338     14364     14366     14367
     14338     14364     14366     14368     14338     14364     14366     14369
     14338     14364     14370     14371     14338     14364     14370     14372
     14338     14364     14370     14373     14339     14338     14340     14341
     14339     14338     14340     14345     14339     14338     14364     14365
     14339     14338     14364     14366     14339     14338     14364     14370
     14340     14330     14328     14351     14340     14338     14364     14365
     14340     14338     14364     14366     14340     14338     14364     14370
     14340     14345     14348     14349     14340     14345     14348     14350
     14340     14345     14348     14351     14341     14340     14338     14364
     14341     14340     14345     14346     14341     14340     14345     14347
     14341     14340     14345     14348     14342     14341     14340     14345
     14343     14341     14340     14345     14344     14341     14340     14345
     14345     14340     14338     14364     14345     14348     14351     14352
     14345     14348     14351     14353     14346     14345     14348     14349
     14346     14345     14348     14350     14346     14345     14348     14351
     14347     14345     14348     14349     14347     14345     14348     14350
     14347     14345     14348     14351     14348     14351     14353     14354
     14348     14351     14353     14358     14349     14348     14351     14352
     14349     14348     14351     14353     14350     14348     14351     14352
     14350     14348     14351     14353     14351     14353     14354     14355
     14351     14353     14354     14356     14351     14353     14354     14357
     14351     14353     14358     14359     14351     14353     14358     14360
     14351     14353     14358     14361     14352     14351     14353     14354
     14352     14351     14353     14358     14353     14358     14361     14362
     14353     14358     14361     14363     14354     14353     14358     14359
     14354     14353     14358     14360     14354     14353     14358     14361
     14355     14354     14353     14358     14356     14354     14353     14358
     14357     14354     14353     14358     14359     14358     14361     14362
     14359     14358     14361     14363     14360     14358     14361     14362
     14360     14358     14361     14363     14364     14370     14373     14374
     14364     14370     14373     14375     14364     14370     14373     14376
     14365     14364     14366     14367     14365     14364     14366     14368
     14365     14364     14366     14369     14365     14364     14370     14371
     14365     14364     14370     14372     14365     14364     14370     14373
     14366     14364     14370     14371     14366     14364     14370     14372
     14366     14364     14370     14373     14367     14366     14364     14370
     14368     14366     14364     14370     14369     14366     14364     14370
     14370     14373     14376     14377     14370     14373     14376     14378
     14370     14373     14376     14379     14371     14370     14373     14374
     14371     14370     14373     14375     14371     14370     14373     14376
     14372     14370     14373     14374     14372     14370     14373     14375
     14372     14370     14373     14376     14373     14376     14379     14380
     14373     14376     14379     14381     14373     14376     14379     14385
     14374     14373     14376     14377     14374     14373     14376     14378
     14374     14373     14376     14379     14375     14373     14376     14377
     14375     14373     14376     14378     14375     14373     14376     14379
     14376     14379     14381     14382     14376     14379     14381     14383
     14376     14379     14381     14384     14376     14379     14385     14386
     14376     14379     14385     14387     14376     14379     14385     14388
     14377     14376     14379     14380     14377     14376     14379     14381
     14377     14376     14379     14385     14378     14376     14379     14380
     14378     14376     14379     14381     14378     14376     14379     14385
     14380     14379     14381     14382     14380     14379     14381     14383
     14380     14379     14381     14384     14380     14379     14385     14386
     14380     14379     14385     14387     14380     14379     14385     14388
     14381     14379     14385     14386     14381     14379     14385     14387
     14381     14379     14385     14388     14382     14381     14379     14385
     14383     14381     14379     14385     14384     14381     14379     14385
     14389     14393     14396     14397     14389     14393     14396     14427
     14389     14435     14432     14427     14389     14435     14432     14433
     14389     14435     14432     14434     14390     14389     14391     14392
     14390     14389     14393     14394     14390     14389     14393     14395
     14390     14389     14393     14396     14390     14389     14435     14432
     14390     14389     14435     14436     14390     14389     14435     14437
     14391     14389     14393     14394     14391     14389     14393     14395
     14391     14389     14393     14396     14391     14389     14435     14432
     14391     14389     14435     14436     14391     14389     14435     14437
     14392     14391     14389     14393     14392     14391     14389     14435
     14393     14389     14435     14432     14393     14389     14435     14436
     14393     14389     14435     14437     14393     14396     14397     14398
     14393     14396     14397     14399     14393     14396     14427     14425
     14393     14396     14427     14428     14393     14396     14427     14432
     14394     14393     14389     14435     14394     14393     14396     14397
     14394     14393     14396     14427     14395     14393     14389     14435
     14395     14393     14396     14397     14395     14393     14396     14427
     14396     14393     14389     14435     14396     14397     14399     14400
     14396     14397     14399     14401     14396     14397     14399     14402
     14396     14427     14425     14402     14396     14427     14425     14422
     14396     14427     14425     14426     14396     14427     14428     14429
     14396     14427     14428     14430     14396     14427     14428     14431
     14396     14427     14432     14433     14396     14427     14432     14434
     14396     14427     14432     14435     14397     14396     14427     14425
     14397     14396     14427     14428     14397     14396     14427     14432
     14397     14399     14402     14403     14397     14399     14402     14404
     14397     14399     14402     14425     14398     14397     14396     14427
     14398     14397     14399     14400     14398     14397     14399     14401
     14398     14397     14399     14402     14399     14397     14396     14427
     14399     14402     14404     14405     14399     14402     14404     14406
     14399     14402     14404     14414     14399     14402     14425     14422
     14399     14402     14425     14426     14399     14402     14425     14427
     14400     14399     14402     14403     14400     14399     14402     14404
     14400     14399     14402     14425     14401     14399     14402     14403
     14401     14399     14402     14404     14401     14399     14402     14425
     14402     14404     14406     14407     14402     14404     14406     14408
     14402     14404     14406     14409     14402     14404     14414     14412
     14402     14404     14414     14415     14402     14404     14414     14419
     14402     14425     14422     14419     14402     14425     14422     14423
     14402     14425     14422     14424     14402     14425     14427     14428
     14402     14425     14427     14432     14403     14402     14404     14405
     14403     14402     14404     14406     14403     14402     14404     14414
     14403     14402     14425     14422     14403     14402     14425     14426
     14403     14402     14425     14427     14404     14402     14425     14422
     14404     14402     14425     14426     14404     14402     14425     14427
     14404     14406     14409     14410     14404     14406     14409     14411
     14404     14406     14409     14412     14404     14414     14412     14409
     14404     14414     14412     14413     14404     14414     14412     14438
     14404     14414     14415     14416     14404     14414     14415     14417
     14404     14414     14415     14418     14404     14414     14419     14420
     14404     14414     14419     14421     14404     14414     14419     14422
     14405     14404     14402     14425     14405     14404     14406     14407
     14405     14404     14406     14408     14405     14404     14406     14409
     14405     14404     14414     14412     14405     14404     14414     14415
     14405     14404     14414     14419     14406     14404     14402     14425
     14406     14404     14414     14412     14406     14404     14414     14415
     14406     14404     14414     14419     14406     14409     14412     14413
     14406     14409     14412     14414     14406     14409     14412     14438
     14407     14406     14404     14414     14407     14406     14409     14410
     14407     14406     14409     14411     14407     14406     14409     14412
     14408     14406     14404     14414     14408     14406     14409     14410
     14408     14406     14409     14411     14408     14406     14409     14412
     14409     14406     14404     14414     14409     14412     14414     14415
     14409     14412     14414     14419     14409     14412     14438     14439
     14409     14412     14438     14440     14409     14412     14438     14444
     14410     14409     14412     14413     14410     14409     14412     14414
     14410     14409     14412     14438     14411     14409     14412     14413
     14411     14409     14412     14414     14411     14409     14412     14438
     14412     14414     14415     14416     14412     14414     14415     14417
     14412     14414     14415     14418     14412     14414     14419     14420
     14412     14414     14419     14421     14412     14414     14419     14422
     14412     14438     14440     14441     14412     14438     14440     14442
     14412     14438     14440     14443     14412     14438     14444     14445
     14412     14438     14444     14446     14412     14438     14444     14447
     14413     14412     14414     14415     14413     14412     14414     14419
     14413     14412     14438     14439     14413     14412     14438     14440
     14413     14412     14438     14444     14414     14404     14402     14425
     14414     14412     14438     14439     14414     14412     14438     14440
     14414     14412     14438     14444     14414     14419     14422     14423
     14414     14419     14422     14424     14414     14419     14422     14425
     14415     14414     14412     14438     14415     14414     14419     14420
     14415     14414     14419     14421     14415     14414     14419     14422
     14416     14415     14414     14419     14417     14415     14414     14419
     14418     14415     14414     14419     14419     14414     14412     14438
     14419     14422     14425     14426     14419     14422     14425     14427
     14420     14419     14422     14423     14420     14419     14422     14424
     14420     14419     14422     14425     14421     14419     14422     14423
     14421     14419     14422     14424     14421     14419     14422     14425
     14422     14425     14427     14428     14422     14425     14427     14432
     14423     14422     14425     14426     14423     14422     14425     14427
     14424     14422     14425     14426     14424     14422     14425     14427
     14425     14427     14428     14429     14425     14427     14428     14430
     14425     14427     14428     14431     14425     14427     14432     14433
     14425     14427     14432     14434     14425     14427     14432     14435
     14426     14425     14427     14428     14426     14425     14427     14432
     14427     14432     14435     14436     14427     14432     14435     14437
     14428     14427     14432     14433     14428     14427     14432     14434
     14428     14427     14432     14435     14429     14428     14427     14432
     14430     14428     14427     14432     14431     14428     14427     14432
     14433     14432     14435     14436     14433     14432     14435     14437
     14434     14432     14435     14436     14434     14432     14435     14437
     14438     14444     14447     14448     14438     14444     14447     14449
     14438     14444     14447     14450     14439     14438     14440     14441
     14439     14438     14440     14442     14439     14438     14440     14443
     14439     14438     14444     14445     14439     14438     14444     14446
     14439     14438     14444     14447     14440     14438     14444     14445
     14440     14438     14444     14446     14440     14438     14444     14447
     14441     14440     14438     14444     14442     14440     14438     14444
     14443     14440     14438     14444     14444     14447     14450     14451
     14444     14447     14450     14452     14444     14447     14450     14453
     14445     14444     14447     14448     14445     14444     14447     14449
     14445     14444     14447     14450     14446     14444     14447     14448
     14446     14444     14447     14449     14446     14444     14447     14450
     14447     14450     14453     14454     14447     14450     14453     14455
     14447     14450     14453     14459     14448     14447     14450     14451
     14448     14447     14450     14452     14448     14447     14450     14453
     14449     14447     14450     14451     14449     14447     14450     14452
     14449     14447     14450     14453     14450     14453     14455     14456
     14450     14453     14455     14457     14450     14453     14455     14458
     14450     14453     14459     14460     14450     14453     14459     14461
     14450     14453     14459     14462     14451     14450     14453     14454
     14451     14450     14453     14455     14451     14450     14453     14459
     14452     14450     14453     14454     14452     14450     14453     14455
     14452     14450     14453     14459     14454     14453     14455     14456
     14454     14453     14455     14457     14454     14453     14455     14458
     14454     14453     14459     14460     14454     14453     14459     14461
     14454     14453     14459     14462     14455     14453     14459     14460
     14455     14453     14459     14461     14455     14453     14459     14462
     14456     14455     14453     14459     14457     14455     14453     14459
     14458     14455     14453     14459     14463     14467     14470     14471
     14463     14467     14470     14501     14463     14509     14506     14501
     14463     14509     14506     14507     14463     14509     14506     14508
     14464     14463     14465     14466     14464     14463     14467     14468
     14464     14463     14467     14469     14464     14463     14467     14470
     14464     14463     14509     14506     14464     14463     14509     14510
     14464     14463     14509     14511     14465     14463     14467     14468
     14465     14463     14467     14469     14465     14463     14467     14470
     14465     14463     14509     14506     14465     14463     14509     14510
     14465     14463     14509     14511     14466     14465     14463     14467
     14466     14465     14463     14509     14467     14463     14509     14506
     14467     14463     14509     14510     14467     14463     14509     14511
     14467     14470     14471     14472     14467     14470     14471     14473
     14467     14470     14501     14499     14467     14470     14501     14502
     14467     14470     14501     14506     14468     14467     14463     14509
     14468     14467     14470     14471     14468     14467     14470     14501
     14469     14467     14463     14509     14469     14467     14470     14471
     14469     14467     14470     14501     14470     14467     14463     14509
     14470     14471     14473     14474     14470     14471     14473     14475
     14470     14471     14473     14476     14470     14501     14499     14476
     14470     14501     14499     14496     14470     14501     14499     14500
     14470     14501     14502     14503     14470     14501     14502     14504
     14470     14501     14502     14505     14470     14501     14506     14507
     14470     14501     14506     14508     14470     14501     14506     14509
     14471     14470     14501     14499     14471     14470     14501     14502
     14471     14470     14501     14506     14471     14473     14476     14477
     14471     14473     14476     14478     14471     14473     14476     14499
     14472     14471     14470     14501     14472     14471     14473     14474
     14472     14471     14473     14475     14472     14471     14473     14476
     14473     14471     14470     14501     14473     14476     14478     14479
     14473     14476     14478     14480     14473     14476     14478     14488
     14473     14476     14499     14496     14473     14476     14499     14500
     14473     14476     14499     14501     14474     14473     14476     14477
     14474     14473     14476     14478     14474     14473     14476     14499
     14475     14473     14476     14477     14475     14473     14476     14478
     14475     14473     14476     14499     14476     14478     14480     14481
     14476     14478     14480     14482     14476     14478     14480     14483
     14476     14478     14488     14486     14476     14478     14488     14489
     14476     14478     14488     14493     14476     14499     14496     14493
     14476     14499     14496     14497     14476     14499     14496     14498
     14476     14499     14501     14502     14476     14499     14501     14506
     14477     14476     14478     14479     14477     14476     14478     14480
     14477     14476     14478     14488     14477     14476     14499     14496
     14477     14476     14499     14500     14477     14476     14499     14501
     14478     14476     14499     14496     14478     14476     14499     14500
     14478     14476     14499     14501     14478     14480     14483     14484
     14478     14480     14483     14485     14478     14480     14483     14486
     14478     14488     14486     14483     14478     14488     14486     14487
     14478     14488     14486     14512     14478     14488     14489     14490
     14478     14488     14489     14491     14478     14488     14489     14492
     14478     14488     14493     14494     14478     14488     14493     14495
     14478     14488     14493     14496     14479     14478     14476     14499
     14479     14478     14480     14481     14479     14478     14480     14482
     14479     14478     14480     14483     14479     14478     14488     14486
     14479     14478     14488     14489     14479     14478     14488     14493
     14480     14478     14476     14499     14480     14478     14488     14486
     14480     14478     14488     14489     14480     14478     14488     14493
     14480     14483     14486     14487     14480     14483     14486     14488
     14480     14483     14486     14512     14481     14480     14478     14488
     14481     14480     14483     14484     14481     14480     14483     14485
     14481     14480     14483     14486     14482     14480     14478     14488
     14482     14480     14483     14484     14482     14480     14483     14485
     14482     14480     14483     14486     14483     14480     14478     14488
     14483     14486     14488     14489     14483     14486     14488     14493
     14483     14486     14512     14513     14483     14486     14512     14514
     14483     14486     14512     14518     14484     14483     14486     14487
     14484     14483     14486     14488     14484     14483     14486     14512
     14485     14483     14486     14487     14485     14483     14486     14488
     14485     14483     14486     14512     14486     14488     14489     14490
     14486     14488     14489     14491     14486     14488     14489     14492
     14486     14488     14493     14494     14486     14488     14493     14495
     14486     14488     14493     14496     14486     14512     14514     14515
     14486     14512     14514     14516     14486     14512     14514     14517
     14486     14512     14518     14519     14486     14512     14518     14520
     14486     14512     14518     14521     14487     14486     14488     14489
     14487     14486     14488     14493     14487     14486     14512     14513
     14487     14486     14512     14514     14487     14486     14512     14518
     14488     14478     14476     14499     14488     14486     14512     14513
     14488     14486     14512     14514     14488     14486     14512     14518
     14488     14493     14496     14497     14488     14493     14496     14498
     14488     14493     14496     14499     14489     14488     14486     14512
     14489     14488     14493     14494     14489     14488     14493     14495
     14489     14488     14493     14496     14490     14489     14488     14493
     14491     14489     14488     14493     14492     14489     14488     14493
     14493     14488     14486     14512     14493     14496     14499     14500
     14493     14496     14499     14501     14494     14493     14496     14497
     14494     14493     14496     14498     14494     14493     14496     14499
     14495     14493     14496     14497     14495     14493     14496     14498
     14495     14493     14496     14499     14496     14499     14501     14502
     14496     14499     14501     14506     14497     14496     14499     14500
     14497     14496     14499     14501     14498     14496     14499     14500
     14498     14496     14499     14501     14499     14501     14502     14503
     14499     14501     14502     14504     14499     14501     14502     14505
     14499     14501     14506     14507     14499     14501     14506     14508
     14499     14501     14506     14509     14500     14499     14501     14502
     14500     14499     14501     14506     14501     14506     14509     14510
     14501     14506     14509     14511     14502     14501     14506     14507
     14502     14501     14506     14508     14502     14501     14506     14509
     14503     14502     14501     14506     14504     14502     14501     14506
     14505     14502     14501     14506     14507     14506     14509     14510
     14507     14506     14509     14511     14508     14506     14509     14510
     14508     14506     14509     14511     14512     14518     14521     14522
     14512     14518     14521     14523     14512     14518     14521     14524
     14513     14512     14514     14515     14513     14512     14514     14516
     14513     14512     14514     14517     14513     14512     14518     14519
     14513     14512     14518     14520     14513     14512     14518     14521
     14514     14512     14518     14519     14514     14512     14518     14520
     14514     14512     14518     14521     14515     14514     14512     14518
     14516     14514     14512     14518     14517     14514     14512     14518
     14518     14521     14524     14525     14518     14521     14524     14526
     14518     14521     14524     14527     14519     14518     14521     14522
     14519     14518     14521     14523     14519     14518     14521     14524
     14520     14518     14521     14522     14520     14518     14521     14523
     14520     14518     14521     14524     14521     14524     14527     14528
     14521     14524     14527     14529     14521     14524     14527     14533
     14522     14521     14524     14525     14522     14521     14524     14526
     14522     14521     14524     14527     14523     14521     14524     14525
     14523     14521     14524     14526     14523     14521     14524     14527
     14524     14527     14529     14530     14524     14527     14529     14531
     14524     14527     14529     14532     14524     14527     14533     14534
     14524     14527     14533     14535     14524     14527     14533     14536
     14525     14524     14527     14528     14525     14524     14527     14529
     14525     14524     14527     14533     14526     14524     14527     14528
     14526     14524     14527     14529     14526     14524     14527     14533
     14528     14527     14529     14530     14528     14527     14529     14531
     14528     14527     14529     14532     14528     14527     14533     14534
     14528     14527     14533     14535     14528     14527     14533     14536
     14529     14527     14533     14534     14529     14527     14533     14535
     14529     14527     14533     14536     14530     14529     14527     14533
     14531     14529     14527     14533     14532     14529     14527     14533
     14537     14538     14553     14554     14537     14538     14553     14555
     14537     14538     14553     14559     14538     14537     14541     14542
     14538     14537     14541     14543     14538     14537     14541     14544
     14538     14537     14545     14546     14538     14537     14545     14547
     14538     14537     14545     14548     14538     14537     14549     14550
     14538     14537     14549     14551     14538     14537     14549     14552
     14538     14553     14559     14556     14539     14538     14537     14541
     14539     14538     14537     14545     14539     14538     14537     14549
     14539     14538     14553     14554     14539     14538     14553     14555
     14539     14538     14553     14559     14540     14538     14537     14541
     14540     14538     14537     14545     14540     14538     14537     14549
     14540     14538     14553     14554     14540     14538     14553     14555
     14540     14538     14553     14559     14541     14537     14538     14553
     14541     14537     14545     14546     14541     14537     14545     14547
     14541     14537     14545     14548     14541     14537     14549     14550
     14541     14537     14549     14551     14541     14537     14549     14552
     14542     14541     14537     14545     14542     14541     14537     14549
     14543     14541     14537     14545     14543     14541     14537     14549
     14544     14541     14537     14545     14544     14541     14537     14549
     14545     14537     14538     14553     14545     14537     14549     14550
     14545     14537     14549     14551     14545     14537     14549     14552
     14546     14545     14537     14549     14547     14545     14537     14549
     14548     14545     14537     14549     14549     14537     14538     14553
     14553     14559     14556     14557     14553     14559     14556     14558
     14553     14559     14556     14560     14554     14553     14559     14556
     14555     14553     14559     14556     14556     14560     14561     14562
     14556     14560     14561     14563     14556     14560     14561     14564
     14557     14556     14560     14561     14558     14556     14560     14561
     14559     14556     14560     14561     14560     14561     14564     14565
     14560     14561     14564     14566     14560     14561     14564     14572
     14561     14564     14566     14567     14561     14564     14572     14573
     14561     14564     14572     14574     14561     14564     14572     14575
     14562     14561     14564     14565     14562     14561     14564     14566
     14562     14561     14564     14572     14563     14561     14564     14565
     14563     14561     14564     14566     14563     14561     14564     14572
     14564     14566     14567     14568     14564     14566     14567     14569
     14564     14572     14575     14576     14565     14564     14566     14567
     14565     14564     14572     14573     14565     14564     14572     14574
     14565     14564     14572     14575     14566     14564     14572     14573
     14566     14564     14572     14574     14566     14564     14572     14575
     14566     14567     14569     14570     14566     14567     14569     14571
     14566     14567     14569     14581     14567     14566     14564     14572
     14567     14569     14581     14582     14567     14569     14581     14583
     14567     14569     14581     14584     14568     14567     14569     14570
     14568     14567     14569     14571     14568     14567     14569     14581
     14569     14581     14584     14585     14569     14581     14584     14586
     14569     14581     14584     14587     14570     14569     14581     14582
     14570     14569     14581     14583     14570     14569     14581     14584
     14571     14569     14581     14582     14571     14569     14581     14583
     14571     14569     14581     14584     14572     14575     14576     14577
     14572     14575     14576     14578     14573     14572     14575     14576
     14574     14572     14575     14576     14575     14576     14578     14579
     14575     14576     14578     14580     14575     14576     14578     14628
     14576     14578     14628     14629     14576     14578     14628     14630
     14576     14578     14628     14631     14577     14576     14578     14579
     14577     14576     14578     14580     14577     14576     14578     14628
     14578     14628     14631     14632     14578     14628     14631     14633
     14578     14628     14631     14634     14579     14578     14628     14629
     14579     14578     14628     14630     14579     14578     14628     14631
     14580     14578     14628     14629     14580     14578     14628     14630
     14580     14578     14628     14631     14581     14584     14587     14588
     14581     14584     14587     14589     14581     14584     14587     14590
     14582     14581     14584     14585     14582     14581     14584     14586
     14582     14581     14584     14587     14583     14581     14584     14585
     14583     14581     14584     14586     14583     14581     14584     14587
     14584     14587     14590     14591     14584     14587     14590     14592
     14584     14587     14590     14593     14585     14584     14587     14588
     14585     14584     14587     14589     14585     14584     14587     14590
     14586     14584     14587     14588     14586     14584     14587     14589
     14586     14584     14587     14590     14587     14590     14593     14594
     14587     14590     14593     14595     14587     14590     14593     14596
     14588     14587     14590     14591     14588     14587     14590     14592
     14588     14587     14590     14593     14589     14587     14590     14591
     14589     14587     14590     14592     14589     14587     14590     14593
     14590     14593     14596     14597     14590     14593     14596     14598
     14590     14593     14596     14599     14591     14590     14593     14594
     14591     14590     14593     14595     14591     14590     14593     14596
     14592     14590     14593     14594     14592     14590     14593     14595
     14592     14590     14593     14596     14593     14596     14599     14600
     14593     14596     14599     14601     14594     14593     14596     14597
     14594     14593     14596     14598     14594     14593     14596     14599
     14595     14593     14596     14597     14595     14593     14596     14598
     14595     14593     14596     14599     14596     14599     14601     14602
     14596     14599     14601     14603     14597     14596     14599     14600
     14597     14596     14599     14601     14598     14596     14599     14600
     14598     14596     14599     14601     14599     14601     14603     14604
     14599     14601     14603     14605     14599     14601     14603     14606
     14600     14599     14601     14602     14600     14599     14601     14603
     14601     14603     14606     14607     14601     14603     14606     14608
     14601     14603     14606     14609     14602     14601     14603     14604
     14602     14601     14603     14605     14602     14601     14603     14606
     14603     14606     14609     14610     14603     14606     14609     14611
     14603     14606     14609     14612     14604     14603     14606     14607
     14604     14603     14606     14608     14604     14603     14606     14609
     14605     14603     14606     14607     14605     14603     14606     14608
     14605     14603     14606     14609     14606     14609     14612     14613
     14606     14609     14612     14614     14606     14609     14612     14615
     14607     14606     14609     14610     14607     14606     14609     14611
     14607     14606     14609     14612     14608     14606     14609     14610
     14608     14606     14609     14611     14608     14606     14609     14612
     14609     14612     14615     14616     14609     14612     14615     14617
     14609     14612     14615     14618     14610     14609     14612     14613
     14610     14609     14612     14614     14610     14609     14612     14615
     14611     14609     14612     14613     14611     14609     14612     14614
     14611     14609     14612     14615     14612     14615     14618     14619
     14612     14615     14618     14620     14612     14615     14618     14621
     14613     14612     14615     14616     14613     14612     14615     14617
     14613     14612     14615     14618     14614     14612     14615     14616
     14614     14612     14615     14617     14614     14612     14615     14618
     14615     14618     14621     14622     14615     14618     14621     14623
     14615     14618     14621     14624     14616     14615     14618     14619
     14616     14615     14618     14620     14616     14615     14618     14621
     14617     14615     14618     14619     14617     14615     14618     14620
     14617     14615     14618     14621     14618     14621     14624     14625
     14618     14621     14624     14626     14618     14621     14624     14627
     14619     14618     14621     14622     14619     14618     14621     14623
     14619     14618     14621     14624     14620     14618     14621     14622
     14620     14618     14621     14623     14620     14618     14621     14624
     14622     14621     14624     14625     14622     14621     14624     14626
     14622     14621     14624     14627     14623     14621     14624     14625
     14623     14621     14624     14626     14623     14621     14624     14627
     14628     14631     14634     14635     14628     14631     14634     14636
     14628     14631     14634     14637     14629     14628     14631     14632
     14629     14628     14631     14633     14629     14628     14631     14634
     14630     14628     14631     14632     14630     14628     14631     14633
     14630     14628     14631     14634     14631     14634     14637     14638
     14631     14634     14637     14639     14631     14634     14637     14640
     14632     14631     14634     14635     14632     14631     14634     14636
     14632     14631     14634     14637     14633     14631     14634     14635
     14633     14631     14634     14636     14633     14631     14634     14637
     14634     14637     14640     14641     14634     14637     14640     14642
     14634     14637     14640     14643     14635     14634     14637     14638
     14635     14634     14637     14639     14635     14634     14637     14640
     14636     14634     14637     14638     14636     14634     14637     14639
     14636     14634     14637     14640     14637     14640     14643     14644
     14637     14640     14643     14645     14637     14640     14643     14646
     14638     14637     14640     14641     14638     14637     14640     14642
     14638     14637     14640     14643     14639     14637     14640     14641
     14639     14637     14640     14642     14639     14637     14640     14643
     14640     14643     14646     14647     14640     14643     14646     14648
     14640     14643     14646     14649     14641     14640     14643     14644
     14641     14640     14643     14645     14641     14640     14643     14646
     14642     14640     14643     14644     14642     14640     14643     14645
     14642     14640     14643     14646     14643     14646     14649     14650
     14643     14646     14649     14651     14643     14646     14649     14652
     14644     14643     14646     14647     14644     14643     14646     14648
     14644     14643     14646     14649     14645     14643     14646     14647
     14645     14643     14646     14648     14645     14643     14646     14649
     14646     14649     14652     14653     14646     14649     14652     14654
     14646     14649     14652     14655     14647     14646     14649     14650
     14647     14646     14649     14651     14647     14646     14649     14652
     14648     14646     14649     14650     14648     14646     14649     14651
     14648     14646     14649     14652     14649     14652     14655     14656
     14649     14652     14655     14657     14649     14652     14655     14658
     14650     14649     14652     14653     14650     14649     14652     14654
     14650     14649     14652     14655     14651     14649     14652     14653
     14651     14649     14652     14654     14651     14649     14652     14655
     14652     14655     14658     14659     14652     14655     14658     14660
     14652     14655     14658     14661     14653     14652     14655     14656
     14653     14652     14655     14657     14653     14652     14655     14658
     14654     14652     14655     14656     14654     14652     14655     14657
     14654     14652     14655     14658     14655     14658     14661     14662
     14655     14658     14661     14663     14655     14658     14661     14664
     14656     14655     14658     14659     14656     14655     14658     14660
     14656     14655     14658     14661     14657     14655     14658     14659
     14657     14655     14658     14660     14657     14655     14658     14661
     14658     14661     14664     14665     14658     14661     14664     14666
     14658     14661     14664     14667     14659     14658     14661     14662
     14659     14658     14661     14663     14659     14658     14661     14664
     14660     14658     14661     14662     14660     14658     14661     14663
     14660     14658     14661     14664     14661     14664     14667     14668
     14661     14664     14667     14669     14661     14664     14667     14670
     14662     14661     14664     14665     14662     14661     14664     14666
     14662     14661     14664     14667     14663     14661     14664     14665
     14663     14661     14664     14666     14663     14661     14664     14667
     14665     14664     14667     14668     14665     14664     14667     14669
     14665     14664     14667     14670     14666     14664     14667     14668
     14666     14664     14667     14669     14666     14664     14667     14670
     14671     14675     14677     14678     14671     14675     14677     14679
     14671     14675     14680     14681     14671     14675     14680     14682
     14671     14675     14680     14686     14672     14671     14675     14676
     14672     14671     14675     14677     14672     14671     14675     14680
     14673     14671     14675     14676     14673     14671     14675     14677
     14673     14671     14675     14680     14674     14671     14675     14676
     14674     14671     14675     14677     14674     14671     14675     14680
     14675     14680     14686     14683     14676     14675     14677     14678
     14676     14675     14677     14679     14676     14675     14680     14681
     14676     14675     14680     14682     14676     14675     14680     14686
     14677     14675     14680     14681     14677     14675     14680     14682
     14677     14675     14680     14686     14678     14677     14675     14680
     14679     14677     14675     14680     14680     14686     14683     14684
     14680     14686     14683     14685     14680     14686     14683     14687
     14681     14680     14686     14683     14682     14680     14686     14683
     14683     14687     14688     14689     14683     14687     14688     14690
     14683     14687     14688     14691     14684     14683     14687     14688
     14685     14683     14687     14688     14686     14683     14687     14688
     14687     14688     14691     14692     14687     14688     14691     14693
     14687     14688     14691     14699     14688     14691     14693     14694
     14688     14691     14699     14700     14688     14691     14699     14701
     14688     14691     14699     14702     14689     14688     14691     14692
     14689     14688     14691     14693     14689     14688     14691     14699
     14690     14688     14691     14692     14690     14688     14691     14693
     14690     14688     14691     14699     14691     14693     14694     14695
     14691     14693     14694     14696     14691     14699     14702     14703
     14692     14691     14693     14694     14692     14691     14699     14700
     14692     14691     14699     14701     14692     14691     14699     14702
     14693     14691     14699     14700     14693     14691     14699     14701
     14693     14691     14699     14702     14693     14694     14696     14697
     14693     14694     14696     14698     14693     14694     14696     14708
     14694     14693     14691     14699     14694     14696     14708     14709
     14694     14696     14708     14710     14694     14696     14708     14711
     14695     14694     14696     14697     14695     14694     14696     14698
     14695     14694     14696     14708     14696     14708     14711     14712
     14696     14708     14711     14713     14696     14708     14711     14714
     14697     14696     14708     14709     14697     14696     14708     14710
     14697     14696     14708     14711     14698     14696     14708     14709
     14698     14696     14708     14710     14698     14696     14708     14711
     14699     14702     14703     14704     14699     14702     14703     14705
     14700     14699     14702     14703     14701     14699     14702     14703
     14702     14703     14705     14706     14702     14703     14705     14707
     14702     14703     14705     14755     14703     14705     14755     14756
     14703     14705     14755     14757     14703     14705     14755     14758
     14704     14703     14705     14706     14704     14703     14705     14707
     14704     14703     14705     14755     14705     14755     14758     14759
     14705     14755     14758     14760     14705     14755     14758     14761
     14706     14705     14755     14756     14706     14705     14755     14757
     14706     14705     14755     14758     14707     14705     14755     14756
     14707     14705     14755     14757     14707     14705     14755     14758
     14708     14711     14714     14715     14708     14711     14714     14716
     14709     14708     14711     14712     14709     14708     14711     14713
     14709     14708     14711     14714     14710     14708     14711     14712
     14710     14708     14711     14713     14710     14708     14711     14714
     14711     14714     14716     14717     14711     14714     14716     14718
     14712     14711     14714     14715     14712     14711     14714     14716
     14713     14711     14714     14715     14713     14711     14714     14716
     14714     14716     14718     14719     14714     14716     14718     14720
     14714     14716     14718     14721     14715     14714     14716     14717
     14715     14714     14716     14718     14716     14718     14721     14722
     14716     14718     14721     14723     14717     14716     14718     14719
     14717     14716     14718     14720     14717     14716     14718     14721
     14718     14721     14723     14724     14718     14721     14723     14725
     14719     14718     14721     14722     14719     14718     14721     14723
     14720     14718     14721     14722     14720     14718     14721     14723
     14721     14723     14725     14726     14721     14723     14725     14727
     14721     14723     14725     14728     14722     14721     14723     14724
     14722     14721     14723     14725     14723     14725     14728     14729
     14723     14725     14728     14730     14724     14723     14725     14726
     14724     14723     14725     14727     14724     14723     14725     14728
     14725     14728     14730     14731     14725     14728     14730     14732
     14726     14725     14728     14729     14726     14725     14728     14730
     14727     14725     14728     14729     14727     14725     14728     14730
     14728     14730     14732     14733     14728     14730     14732     14734
     14728     14730     14732     14735     14729     14728     14730     14731
     14729     14728     14730     14732     14730     14732     14735     14736
     14730     14732     14735     14737     14731     14730     14732     14733
     14731     14730     14732     14734     14731     14730     14732     14735
     14732     14735     14737     14738     14732     14735     14737     14739
     14733     14732     14735     14736     14733     14732     14735     14737
     14734     14732     14735     14736     14734     14732     14735     14737
     14735     14737     14739     14740     14735     14737     14739     14741
     14735     14737     14739     14742     14736     14735     14737     14738
     14736     14735     14737     14739     14737     14739     14742     14743
     14737     14739     14742     14744     14737     14739     14742     14745
     14738     14737     14739     14740     14738     14737     14739     14741
     14738     14737     14739     14742     14739     14742     14745     14746
     14739     14742     14745     14747     14739     14742     14745     14748
     14740     14739     14742     14743     14740     14739     14742     14744
     14740     14739     14742     14745     14741     14739     14742     14743
     14741     14739     14742     14744     14741     14739     14742     14745
     14742     14745     14748     14749     14742     14745     14748     14750
     14742     14745     14748     14751     14743     14742     14745     14746
     14743     14742     14745     14747     14743     14742     14745     14748
     14744     14742     14745     14746     14744     14742     14745     14747
     14744     14742     14745     14748     14745     14748     14751     14752
     14745     14748     14751     14753     14745     14748     14751     14754
     14746     14745     14748     14749     14746     14745     14748     14750
     14746     14745     14748     14751     14747     14745     14748     14749
     14747     14745     14748     14750     14747     14745     14748     14751
     14749     14748     14751     14752     14749     14748     14751     14753
     14749     14748     14751     14754     14750     14748     14751     14752
     14750     14748     14751     14753     14750     14748     14751     14754
     14755     14758     14761     14762     14755     14758     14761     14763
     14755     14758     14761     14764     14756     14755     14758     14759
     14756     14755     14758     14760     14756     14755     14758     14761
     14757     14755     14758     14759     14757     14755     14758     14760
     14757     14755     14758     14761     14758     14761     14764     14765
     14758     14761     14764     14766     14758     14761     14764     14767
     14759     14758     14761     14762     14759     14758     14761     14763
     14759     14758     14761     14764     14760     14758     14761     14762
     14760     14758     14761     14763     14760     14758     14761     14764
     14761     14764     14767     14768     14761     14764     14767     14769
     14761     14764     14767     14770     14762     14761     14764     14765
     14762     14761     14764     14766     14762     14761     14764     14767
     14763     14761     14764     14765     14763     14761     14764     14766
     14763     14761     14764     14767     14764     14767     14770     14771
     14764     14767     14770     14772     14764     14767     14770     14773
     14765     14764     14767     14768     14765     14764     14767     14769
     14765     14764     14767     14770     14766     14764     14767     14768
     14766     14764     14767     14769     14766     14764     14767     14770
     14767     14770     14773     14774     14767     14770     14773     14775
     14767     14770     14773     14776     14768     14767     14770     14771
     14768     14767     14770     14772     14768     14767     14770     14773
     14769     14767     14770     14771     14769     14767     14770     14772
     14769     14767     14770     14773     14770     14773     14776     14777
     14770     14773     14776     14778     14770     14773     14776     14779
     14771     14770     14773     14774     14771     14770     14773     14775
     14771     14770     14773     14776     14772     14770     14773     14774
     14772     14770     14773     14775     14772     14770     14773     14776
     14773     14776     14779     14780     14773     14776     14779     14781
     14773     14776     14779     14782     14774     14773     14776     14777
     14774     14773     14776     14778     14774     14773     14776     14779
     14775     14773     14776     14777     14775     14773     14776     14778
     14775     14773     14776     14779     14776     14779     14782     14783
     14776     14779     14782     14784     14776     14779     14782     14785
     14777     14776     14779     14780     14777     14776     14779     14781
     14777     14776     14779     14782     14778     14776     14779     14780
     14778     14776     14779     14781     14778     14776     14779     14782
     14779     14782     14785     14786     14779     14782     14785     14787
     14779     14782     14785     14788     14780     14779     14782     14783
     14780     14779     14782     14784     14780     14779     14782     14785
     14781     14779     14782     14783     14781     14779     14782     14784
     14781     14779     14782     14785     14782     14785     14788     14789
     14782     14785     14788     14790     14782     14785     14788     14791
     14783     14782     14785     14786     14783     14782     14785     14787
     14783     14782     14785     14788     14784     14782     14785     14786
     14784     14782     14785     14787     14784     14782     14785     14788
     14785     14788     14791     14792     14785     14788     14791     14793
     14785     14788     14791     14794     14786     14785     14788     14789
     14786     14785     14788     14790     14786     14785     14788     14791
     14787     14785     14788     14789     14787     14785     14788     14790
     14787     14785     14788     14791     14788     14791     14794     14795
     14788     14791     14794     14796     14788     14791     14794     14797
     14789     14788     14791     14792     14789     14788     14791     14793
     14789     14788     14791     14794     14790     14788     14791     14792
     14790     14788     14791     14793     14790     14788     14791     14794
     14791     14794     14797     14798     14791     14794     14797     14799
     14791     14794     14797     14800     14792     14791     14794     14795
     14792     14791     14794     14796     14792     14791     14794     14797
     14793     14791     14794     14795     14793     14791     14794     14796
     14793     14791     14794     14797     14794     14797     14800     14801
     14794     14797     14800     14802     14794     14797     14800     14803
     14795     14794     14797     14798     14795     14794     14797     14799
     14795     14794     14797     14800     14796     14794     14797     14798
     14796     14794     14797     14799     14796     14794     14797     14800
     14798     14797     14800     14801     14798     14797     14800     14802
     14798     14797     14800     14803     14799     14797     14800     14801
     14799     14797     14800     14802     14799     14797     14800     14803
     14804     14817     14820     14821     14804     14817     14820     14822
     14804     14817     14820     14827     14805     14804     14809     14810
     14805     14804     14809     14811     14805     14804     14809     14812
     14805     14804     14813     14814     14805     14804     14813     14815
     14805     14804     14813     14816     14805     14804     14817     14818
     14805     14804     14817     14819     14805     14804     14817     14820
     14806     14805     14804     14809     14806     14805     14804     14813
     14806     14805     14804     14817     14807     14805     14804     14809
     14807     14805     14804     14813     14807     14805     14804     14817
     14808     14805     14804     14809     14808     14805     14804     14813
     14808     14805     14804     14817     14809     14804     14813     14814
     14809     14804     14813     14815     14809     14804     14813     14816
     14809     14804     14817     14818     14809     14804     14817     14819
     14809     14804     14817     14820     14810     14809     14804     14813
     14810     14809     14804     14817     14811     14809     14804     14813
     14811     14809     14804     14817     14812     14809     14804     14813
     14812     14809     14804     14817     14813     14804     14817     14818
     14813     14804     14817     14819     14813     14804     14817     14820
     14814     14813     14804     14817     14815     14813     14804     14817
     14816     14813     14804     14817     14817     14820     14827     14823
     14818     14817     14820     14821     14818     14817     14820     14822
     14818     14817     14820     14827     14819     14817     14820     14821
     14819     14817     14820     14822     14819     14817     14820     14827
     14820     14827     14823     14824     14820     14827     14823     14825
     14820     14827     14823     14826     14821     14820     14827     14823
     14822     14820     14827     14823     14823     14826     14828     14829
     14823     14826     14828     14830     14823     14826     14828     14833
     14824     14823     14826     14828     14825     14823     14826     14828
     14826     14828     14833     14831     14826     14828     14833     14834
     14826     14828     14833     14835     14827     14823     14826     14828
     14828     14833     14831     14832     14828     14833     14831     14883
     14828     14833     14835     14836     14828     14833     14835     14837
     14828     14833     14835     14839     14829     14828     14833     14831
     14829     14828     14833     14834     14829     14828     14833     14835
     14830     14828     14833     14831     14830     14828     14833     14834
     14830     14828     14833     14835     14831     14833     14835     14836
     14831     14833     14835     14837     14831     14833     14835     14839
     14831     14883     14885     14886     14831     14883     14885     14887
     14831     14883     14885     14888     14832     14831     14833     14834
     14832     14831     14833     14835     14832     14831     14883     14884
     14832     14831     14883     14885     14833     14831     14883     14884
     14833     14831     14883     14885     14833     14835     14837     14838
     14833     14835     14839     14840     14833     14835     14839     14841
     14834     14833     14831     14883     14834     14833     14835     14836
     14834     14833     14835     14837     14834     14833     14835     14839
     14835     14833     14831     14883     14835     14839     14841     14842
     14835     14839     14841     14843     14836     14835     14837     14838
     14836     14835     14839     14840     14836     14835     14839     14841
     14837     14835     14839     14840     14837     14835     14839     14841
     14838     14837     14835     14839     14839     14841     14843     14844
     14839     14841     14843     14845     14839     14841     14843     14846
     14840     14839     14841     14842     14840     14839     14841     14843
     14841     14843     14846     14847     14841     14843     14846     14848
     14841     14843     14846     14849     14842     14841     14843     14844
     14842     14841     14843     14845     14842     14841     14843     14846
     14843     14846     14849     14850     14843     14846     14849     14851
     14843     14846     14849     14852     14844     14843     14846     14847
     14844     14843     14846     14848     14844     14843     14846     14849
     14845     14843     14846     14847     14845     14843     14846     14848
     14845     14843     14846     14849     14846     14849     14852     14853
     14846     14849     14852     14854     14846     14849     14852     14855
     14847     14846     14849     14850     14847     14846     14849     14851
     14847     14846     14849     14852     14848     14846     14849     14850
     14848     14846     14849     14851     14848     14846     14849     14852
     14849     14852     14855     14856     14849     14852     14855     14857
     14849     14852     14855     14858     14850     14849     14852     14853
     14850     14849     14852     14854     14850     14849     14852     14855
     14851     14849     14852     14853     14851     14849     14852     14854
     14851     14849     14852     14855     14852     14855     14858     14859
     14852     14855     14858     14860     14852     14855     14858     14861
     14853     14852     14855     14856     14853     14852     14855     14857
     14853     14852     14855     14858     14854     14852     14855     14856
     14854     14852     14855     14857     14854     14852     14855     14858
     14855     14858     14861     14862     14855     14858     14861     14863
     14855     14858     14861     14864     14856     14855     14858     14859
     14856     14855     14858     14860     14856     14855     14858     14861
     14857     14855     14858     14859     14857     14855     14858     14860
     14857     14855     14858     14861     14858     14861     14864     14865
     14858     14861     14864     14866     14858     14861     14864     14867
     14859     14858     14861     14862     14859     14858     14861     14863
     14859     14858     14861     14864     14860     14858     14861     14862
     14860     14858     14861     14863     14860     14858     14861     14864
     14861     14864     14867     14868     14861     14864     14867     14869
     14861     14864     14867     14870     14862     14861     14864     14865
     14862     14861     14864     14866     14862     14861     14864     14867
     14863     14861     14864     14865     14863     14861     14864     14866
     14863     14861     14864     14867     14864     14867     14870     14871
     14864     14867     14870     14872     14864     14867     14870     14873
     14865     14864     14867     14868     14865     14864     14867     14869
     14865     14864     14867     14870     14866     14864     14867     14868
     14866     14864     14867     14869     14866     14864     14867     14870
     14867     14870     14873     14874     14867     14870     14873     14875
     14867     14870     14873     14876     14868     14867     14870     14871
     14868     14867     14870     14872     14868     14867     14870     14873
     14869     14867     14870     14871     14869     14867     14870     14872
     14869     14867     14870     14873     14870     14873     14876     14877
     14870     14873     14876     14878     14870     14873     14876     14879
     14871     14870     14873     14874     14871     14870     14873     14875
     14871     14870     14873     14876     14872     14870     14873     14874
     14872     14870     14873     14875     14872     14870     14873     14876
     14873     14876     14879     14880     14873     14876     14879     14881
     14873     14876     14879     14882     14874     14873     14876     14877
     14874     14873     14876     14878     14874     14873     14876     14879
     14875     14873     14876     14877     14875     14873     14876     14878
     14875     14873     14876     14879     14877     14876     14879     14880
     14877     14876     14879     14881     14877     14876     14879     14882
     14878     14876     14879     14880     14878     14876     14879     14881
     14878     14876     14879     14882     14883     14885     14888     14889
     14883     14885     14888     14890     14883     14885     14888     14891
     14884     14883     14885     14886     14884     14883     14885     14887
     14884     14883     14885     14888     14885     14888     14891     14892
     14885     14888     14891     14893     14885     14888     14891     14894
     14886     14885     14888     14889     14886     14885     14888     14890
     14886     14885     14888     14891     14887     14885     14888     14889
     14887     14885     14888     14890     14887     14885     14888     14891
     14888     14891     14894     14895     14888     14891     14894     14896
     14888     14891     14894     14897     14889     14888     14891     14892
     14889     14888     14891     14893     14889     14888     14891     14894
     14890     14888     14891     14892     14890     14888     14891     14893
     14890     14888     14891     14894     14891     14894     14897     14898
     14891     14894     14897     14899     14891     14894     14897     14900
     14892     14891     14894     14895     14892     14891     14894     14896
     14892     14891     14894     14897     14893     14891     14894     14895
     14893     14891     14894     14896     14893     14891     14894     14897
     14894     14897     14900     14901     14894     14897     14900     14902
     14894     14897     14900     14903     14895     14894     14897     14898
     14895     14894     14897     14899     14895     14894     14897     14900
     14896     14894     14897     14898     14896     14894     14897     14899
     14896     14894     14897     14900     14897     14900     14903     14904
     14897     14900     14903     14905     14897     14900     14903     14906
     14898     14897     14900     14901     14898     14897     14900     14902
     14898     14897     14900     14903     14899     14897     14900     14901
     14899     14897     14900     14902     14899     14897     14900     14903
     14900     14903     14906     14907     14900     14903     14906     14908
     14901     14900     14903     14904     14901     14900     14903     14905
     14901     14900     14903     14906     14902     14900     14903     14904
     14902     14900     14903     14905     14902     14900     14903     14906
     14903     14906     14908     14909     14903     14906     14908     14910
     14904     14903     14906     14907     14904     14903     14906     14908
     14905     14903     14906     14907     14905     14903     14906     14908
     14906     14908     14910     14911     14906     14908     14910     14912
     14906     14908     14910     14913     14907     14906     14908     14909
     14907     14906     14908     14910     14908     14910     14913     14914
     14908     14910     14913     14915     14908     14910     14913     14916
     14909     14908     14910     14911     14909     14908     14910     14912
     14909     14908     14910     14913     14910     14913     14916     14917
     14910     14913     14916     14918     14910     14913     14916     14919
     14911     14910     14913     14914     14911     14910     14913     14915
     14911     14910     14913     14916     14912     14910     14913     14914
     14912     14910     14913     14915     14912     14910     14913     14916
     14913     14916     14919     14920     14913     14916     14919     14921
     14913     14916     14919     14922     14914     14913     14916     14917
     14914     14913     14916     14918     14914     14913     14916     14919
     14915     14913     14916     14917     14915     14913     14916     14918
     14915     14913     14916     14919     14916     14919     14922     14923
     14916     14919     14922     14924     14916     14919     14922     14925
     14917     14916     14919     14920     14917     14916     14919     14921
     14917     14916     14919     14922     14918     14916     14919     14920
     14918     14916     14919     14921     14918     14916     14919     14922
     14919     14922     14925     14926     14919     14922     14925     14927
     14919     14922     14925     14928     14920     14919     14922     14923
     14920     14919     14922     14924     14920     14919     14922     14925
     14921     14919     14922     14923     14921     14919     14922     14924
     14921     14919     14922     14925     14922     14925     14928     14929
     14922     14925     14928     14930     14922     14925     14928     14931
     14923     14922     14925     14926     14923     14922     14925     14927
     14923     14922     14925     14928     14924     14922     14925     14926
     14924     14922     14925     14927     14924     14922     14925     14928
     14925     14928     14931     14932     14925     14928     14931     14933
     14925     14928     14931     14934     14926     14925     14928     14929
     14926     14925     14928     14930     14926     14925     14928     14931
     14927     14925     14928     14929     14927     14925     14928     14930
     14927     14925     14928     14931     14929     14928     14931     14932
     14929     14928     14931     14933     14929     14928     14931     14934
     14930     14928     14931     14932     14930     14928     14931     14933
     14930     14928     14931     14934     14935     14948     14951     14952
     14935     14948     14951     14953     14935     14948     14951     14957
     14936     14935     14940     14941     14936     14935     14940     14942
     14936     14935     14940     14943     14936     14935     14944     14945
     14936     14935     14944     14946     14936     14935     14944     14947
     14936     14935     14948     14949     14936     14935     14948     14950
     14936     14935     14948     14951     14937     14936     14935     14940
     14937     14936     14935     14944     14937     14936     14935     14948
     14938     14936     14935     14940     14938     14936     14935     14944
     14938     14936     14935     14948     14939     14936     14935     14940
     14939     14936     14935     14944     14939     14936     14935     14948
     14940     14935     14944     14945     14940     14935     14944     14946
     14940     14935     14944     14947     14940     14935     14948     14949
     14940     14935     14948     14950     14940     14935     14948     14951
     14941     14940     14935     14944     14941     14940     14935     14948
     14942     14940     14935     14944     14942     14940     14935     14948
     14943     14940     14935     14944     14943     14940     14935     14948
     14944     14935     14948     14949     14944     14935     14948     14950
     14944     14935     14948     14951     14945     14944     14935     14948
     14946     14944     14935     14948     14947     14944     14935     14948
     14948     14951     14957     14954     14949     14948     14951     14952
     14949     14948     14951     14953     14949     14948     14951     14957
     14950     14948     14951     14952     14950     14948     14951     14953
     14950     14948     14951     14957     14951     14957     14954     14955
     14951     14957     14954     14956     14951     14957     14954     14958
     14952     14951     14957     14954     14953     14951     14957     14954
     14954     14958     14959     14960     14954     14958     14959     14961
     14954     14958     14959     14962     14955     14954     14958     14959
     14956     14954     14958     14959     14957     14954     14958     14959
     14958     14959     14962     14963     14958     14959     14962     14964
     14958     14959     14962     14970     14959     14962     14964     14965
     14959     14962     14970     14971     14959     14962     14970     14972
     14959     14962     14970     14973     14960     14959     14962     14963
     14960     14959     14962     14964     14960     14959     14962     14970
     14961     14959     14962     14963     14961     14959     14962     14964
     14961     14959     14962     14970     14962     14964     14965     14966
     14962     14964     14965     14967     14962     14970     14973     14974
     14963     14962     14964     14965     14963     14962     14970     14971
     14963     14962     14970     14972     14963     14962     14970     14973
     14964     14962     14970     14971     14964     14962     14970     14972
     14964     14962     14970     14973     14964     14965     14967     14968
     14964     14965     14967     14969     14964     14965     14967     14979
     14965     14964     14962     14970     14965     14967     14979     14980
     14965     14967     14979     14981     14965     14967     14979     14982
     14966     14965     14967     14968     14966     14965     14967     14969
     14966     14965     14967     14979     14967     14979     14982     14983
     14967     14979     14982     14984     14967     14979     14982     14985
     14968     14967     14979     14980     14968     14967     14979     14981
     14968     14967     14979     14982     14969     14967     14979     14980
     14969     14967     14979     14981     14969     14967     14979     14982
     14970     14973     14974     14975     14970     14973     14974     14976
     14971     14970     14973     14974     14972     14970     14973     14974
     14973     14974     14976     14977     14973     14974     14976     14978
     14973     14974     14976     15024     14974     14976     15024     15025
     14974     14976     15024     15026     14974     14976     15024     15027
     14975     14974     14976     14977     14975     14974     14976     14978
     14975     14974     14976     15024     14976     15024     15027     15028
     14976     15024     15027     15029     14976     15024     15027     15030
     14977     14976     15024     15025     14977     14976     15024     15026
     14977     14976     15024     15027     14978     14976     15024     15025
     14978     14976     15024     15026     14978     14976     15024     15027
     14979     14982     14985     14986     14979     14982     14985     14987
     14979     14982     14985     14988     14980     14979     14982     14983
     14980     14979     14982     14984     14980     14979     14982     14985
     14981     14979     14982     14983     14981     14979     14982     14984
     14981     14979     14982     14985     14982     14985     14988     14989
     14982     14985     14988     14990     14982     14985     14988     14991
     14983     14982     14985     14986     14983     14982     14985     14987
     14983     14982     14985     14988     14984     14982     14985     14986
     14984     14982     14985     14987     14984     14982     14985     14988
     14985     14988     14991     14992     14985     14988     14991     14993
     14985     14988     14991     14994     14986     14985     14988     14989
     14986     14985     14988     14990     14986     14985     14988     14991
     14987     14985     14988     14989     14987     14985     14988     14990
     14987     14985     14988     14991     14988     14991     14994     14995
     14988     14991     14994     14996     14988     14991     14994     14997
     14989     14988     14991     14992     14989     14988     14991     14993
     14989     14988     14991     14994     14990     14988     14991     14992
     14990     14988     14991     14993     14990     14988     14991     14994
     14991     14994     14997     14998     14991     14994     14997     14999
     14992     14991     14994     14995     14992     14991     14994     14996
     14992     14991     14994     14997     14993     14991     14994     14995
     14993     14991     14994     14996     14993     14991     14994     14997
     14994     14997     14999     15000     14994     14997     14999     15001
     14995     14994     14997     14998     14995     14994     14997     14999
     14996     14994     14997     14998     14996     14994     14997     14999
     14997     14999     15001     15002     14997     14999     15001     15003
     14997     14999     15001     15004     14998     14997     14999     15000
     14998     14997     14999     15001     14999     15001     15004     15005
     14999     15001     15004     15006     15000     14999     15001     15002
     15000     14999     15001     15003     15000     14999     15001     15004
     15001     15004     15006     15007     15001     15004     15006     15008
     15002     15001     15004     15005     15002     15001     15004     15006
     15003     15001     15004     15005     15003     15001     15004     15006
     15004     15006     15008     15009     15004     15006     15008     15010
     15004     15006     15008     15011     15005     15004     15006     15007
     15005     15004     15006     15008     15006     15008     15011     15012
     15006     15008     15011     15013     15006     15008     15011     15014
     15007     15006     15008     15009     15007     15006     15008     15010
     15007     15006     15008     15011     15008     15011     15014     15015
     15008     15011     15014     15016     15008     15011     15014     15017
     15009     15008     15011     15012     15009     15008     15011     15013
     15009     15008     15011     15014     15010     15008     15011     15012
     15010     15008     15011     15013     15010     15008     15011     15014
     15011     15014     15017     15018     15011     15014     15017     15019
     15011     15014     15017     15020     15012     15011     15014     15015
     15012     15011     15014     15016     15012     15011     15014     15017
     15013     15011     15014     15015     15013     15011     15014     15016
     15013     15011     15014     15017     15014     15017     15020     15021
     15014     15017     15020     15022     15014     15017     15020     15023
     15015     15014     15017     15018     15015     15014     15017     15019
     15015     15014     15017     15020     15016     15014     15017     15018
     15016     15014     15017     15019     15016     15014     15017     15020
     15018     15017     15020     15021     15018     15017     15020     15022
     15018     15017     15020     15023     15019     15017     15020     15021
     15019     15017     15020     15022     15019     15017     15020     15023
     15024     15027     15030     15031     15024     15027     15030     15032
     15024     15027     15030     15033     15025     15024     15027     15028
     15025     15024     15027     15029     15025     15024     15027     15030
     15026     15024     15027     15028     15026     15024     15027     15029
     15026     15024     15027     15030     15027     15030     15033     15034
     15027     15030     15033     15035     15027     15030     15033     15036
     15028     15027     15030     15031     15028     15027     15030     15032
     15028     15027     15030     15033     15029     15027     15030     15031
     15029     15027     15030     15032     15029     15027     15030     15033
     15030     15033     15036     15037     15030     15033     15036     15038
     15030     15033     15036     15039     15031     15030     15033     15034
     15031     15030     15033     15035     15031     15030     15033     15036
     15032     15030     15033     15034     15032     15030     15033     15035
     15032     15030     15033     15036     15033     15036     15039     15040
     15033     15036     15039     15041     15033     15036     15039     15042
     15034     15033     15036     15037     15034     15033     15036     15038
     15034     15033     15036     15039     15035     15033     15036     15037
     15035     15033     15036     15038     15035     15033     15036     15039
     15036     15039     15042     15043     15036     15039     15042     15044
     15036     15039     15042     15045     15037     15036     15039     15040
     15037     15036     15039     15041     15037     15036     15039     15042
     15038     15036     15039     15040     15038     15036     15039     15041
     15038     15036     15039     15042     15039     15042     15045     15046
     15039     15042     15045     15047     15039     15042     15045     15048
     15040     15039     15042     15043     15040     15039     15042     15044
     15040     15039     15042     15045     15041     15039     15042     15043
     15041     15039     15042     15044     15041     15039     15042     15045
     15042     15045     15048     15049     15042     15045     15048     15050
     15042     15045     15048     15051     15043     15042     15045     15046
     15043     15042     15045     15047     15043     15042     15045     15048
     15044     15042     15045     15046     15044     15042     15045     15047
     15044     15042     15045     15048     15045     15048     15051     15052
     15045     15048     15051     15053     15045     15048     15051     15054
     15046     15045     15048     15049     15046     15045     15048     15050
     15046     15045     15048     15051     15047     15045     15048     15049
     15047     15045     15048     15050     15047     15045     15048     15051
     15048     15051     15054     15055     15048     15051     15054     15056
     15048     15051     15054     15057     15049     15048     15051     15052
     15049     15048     15051     15053     15049     15048     15051     15054
     15050     15048     15051     15052     15050     15048     15051     15053
     15050     15048     15051     15054     15051     15054     15057     15058
     15051     15054     15057     15059     15051     15054     15057     15060
     15052     15051     15054     15055     15052     15051     15054     15056
     15052     15051     15054     15057     15053     15051     15054     15055
     15053     15051     15054     15056     15053     15051     15054     15057
     15054     15057     15060     15061     15054     15057     15060     15062
     15054     15057     15060     15063     15055     15054     15057     15058
     15055     15054     15057     15059     15055     15054     15057     15060
     15056     15054     15057     15058     15056     15054     15057     15059
     15056     15054     15057     15060     15057     15060     15063     15064
     15057     15060     15063     15065     15057     15060     15063     15066
     15058     15057     15060     15061     15058     15057     15060     15062
     15058     15057     15060     15063     15059     15057     15060     15061
     15059     15057     15060     15062     15059     15057     15060     15063
     15060     15063     15066     15067     15060     15063     15066     15068
     15060     15063     15066     15069     15061     15060     15063     15064
     15061     15060     15063     15065     15061     15060     15063     15066
     15062     15060     15063     15064     15062     15060     15063     15065
     15062     15060     15063     15066     15063     15066     15069     15070
     15063     15066     15069     15071     15063     15066     15069     15072
     15064     15063     15066     15067     15064     15063     15066     15068
     15064     15063     15066     15069     15065     15063     15066     15067
     15065     15063     15066     15068     15065     15063     15066     15069
     15067     15066     15069     15070     15067     15066     15069     15071
     15067     15066     15069     15072     15068     15066     15069     15070
     15068     15066     15069     15071     15068     15066     15069     15072
     15073     15077     15080     15081     15073     15077     15080     15082
     15073     15077     15080     15086     15074     15073     15077     15078
     15074     15073     15077     15079     15074     15073     15077     15080
     15075     15073     15077     15078     15075     15073     15077     15079
     15075     15073     15077     15080     15076     15073     15077     15078
     15076     15073     15077     15079     15076     15073     15077     15080
     15077     15080     15086     15083     15078     15077     15080     15081
     15078     15077     15080     15082     15078     15077     15080     15086
     15079     15077     15080     15081     15079     15077     15080     15082
     15079     15077     15080     15086     15080     15086     15083     15084
     15080     15086     15083     15085     15080     15086     15083     15087
     15081     15080     15086     15083     15082     15080     15086     15083
     15083     15087     15088     15089     15083     15087     15088     15090
     15083     15087     15088     15091     15084     15083     15087     15088
     15085     15083     15087     15088     15086     15083     15087     15088
     15087     15088     15091     15092     15087     15088     15091     15093
     15087     15088     15091     15099     15088     15091     15093     15094
     15088     15091     15099     15100     15088     15091     15099     15101
     15088     15091     15099     15102     15089     15088     15091     15092
     15089     15088     15091     15093     15089     15088     15091     15099
     15090     15088     15091     15092     15090     15088     15091     15093
     15090     15088     15091     15099     15091     15093     15094     15095
     15091     15093     15094     15096     15091     15099     15102     15103
     15092     15091     15093     15094     15092     15091     15099     15100
     15092     15091     15099     15101     15092     15091     15099     15102
     15093     15091     15099     15100     15093     15091     15099     15101
     15093     15091     15099     15102     15093     15094     15096     15097
     15093     15094     15096     15098     15093     15094     15096     15108
     15094     15093     15091     15099     15094     15096     15108     15109
     15094     15096     15108     15110     15094     15096     15108     15111
     15095     15094     15096     15097     15095     15094     15096     15098
     15095     15094     15096     15108     15096     15108     15111     15112
     15096     15108     15111     15113     15096     15108     15111     15114
     15097     15096     15108     15109     15097     15096     15108     15110
     15097     15096     15108     15111     15098     15096     15108     15109
     15098     15096     15108     15110     15098     15096     15108     15111
     15099     15102     15103     15104     15099     15102     15103     15105
     15100     15099     15102     15103     15101     15099     15102     15103
     15102     15103     15105     15106     15102     15103     15105     15107
     15102     15103     15105     15155     15103     15105     15155     15156
     15103     15105     15155     15157     15103     15105     15155     15158
     15104     15103     15105     15106     15104     15103     15105     15107
     15104     15103     15105     15155     15105     15155     15158     15159
     15105     15155     15158     15160     15105     15155     15158     15161
     15106     15105     15155     15156     15106     15105     15155     15157
     15106     15105     15155     15158     15107     15105     15155     15156
     15107     15105     15155     15157     15107     15105     15155     15158
     15108     15111     15114     15115     15108     15111     15114     15116
     15109     15108     15111     15112     15109     15108     15111     15113
     15109     15108     15111     15114     15110     15108     15111     15112
     15110     15108     15111     15113     15110     15108     15111     15114
     15111     15114     15116     15117     15111     15114     15116     15118
     15112     15111     15114     15115     15112     15111     15114     15116
     15113     15111     15114     15115     15113     15111     15114     15116
     15114     15116     15118     15119     15114     15116     15118     15120
     15114     15116     15118     15121     15115     15114     15116     15117
     15115     15114     15116     15118     15116     15118     15121     15122
     15116     15118     15121     15123     15117     15116     15118     15119
     15117     15116     15118     15120     15117     15116     15118     15121
     15118     15121     15123     15124     15118     15121     15123     15125
     15119     15118     15121     15122     15119     15118     15121     15123
     15120     15118     15121     15122     15120     15118     15121     15123
     15121     15123     15125     15126     15121     15123     15125     15127
     15121     15123     15125     15128     15122     15121     15123     15124
     15122     15121     15123     15125     15123     15125     15128     15129
     15123     15125     15128     15130     15124     15123     15125     15126
     15124     15123     15125     15127     15124     15123     15125     15128
     15125     15128     15130     15131     15125     15128     15130     15132
     15126     15125     15128     15129     15126     15125     15128     15130
     15127     15125     15128     15129     15127     15125     15128     15130
     15128     15130     15132     15133     15128     15130     15132     15134
     15128     15130     15132     15135     15129     15128     15130     15131
     15129     15128     15130     15132     15130     15132     15135     15136
     15130     15132     15135     15137     15131     15130     15132     15133
     15131     15130     15132     15134     15131     15130     15132     15135
     15132     15135     15137     15138     15132     15135     15137     15139
     15133     15132     15135     15136     15133     15132     15135     15137
     15134     15132     15135     15136     15134     15132     15135     15137
     15135     15137     15139     15140     15135     15137     15139     15141
     15135     15137     15139     15142     15136     15135     15137     15138
     15136     15135     15137     15139     15137     15139     15142     15143
     15137     15139     15142     15144     15137     15139     15142     15145
     15138     15137     15139     15140     15138     15137     15139     15141
     15138     15137     15139     15142     15139     15142     15145     15146
     15139     15142     15145     15147     15139     15142     15145     15148
     15140     15139     15142     15143     15140     15139     15142     15144
     15140     15139     15142     15145     15141     15139     15142     15143
     15141     15139     15142     15144     15141     15139     15142     15145
     15142     15145     15148     15149     15142     15145     15148     15150
     15142     15145     15148     15151     15143     15142     15145     15146
     15143     15142     15145     15147     15143     15142     15145     15148
     15144     15142     15145     15146     15144     15142     15145     15147
     15144     15142     15145     15148     15145     15148     15151     15152
     15145     15148     15151     15153     15145     15148     15151     15154
     15146     15145     15148     15149     15146     15145     15148     15150
     15146     15145     15148     15151     15147     15145     15148     15149
     15147     15145     15148     15150     15147     15145     15148     15151
     15149     15148     15151     15152     15149     15148     15151     15153
     15149     15148     15151     15154     15150     15148     15151     15152
     15150     15148     15151     15153     15150     15148     15151     15154
     15155     15158     15161     15162     15155     15158     15161     15163
     15155     15158     15161     15164     15156     15155     15158     15159
     15156     15155     15158     15160     15156     15155     15158     15161
     15157     15155     15158     15159     15157     15155     15158     15160
     15157     15155     15158     15161     15158     15161     15164     15165
     15158     15161     15164     15166     15158     15161     15164     15167
     15159     15158     15161     15162     15159     15158     15161     15163
     15159     15158     15161     15164     15160     15158     15161     15162
     15160     15158     15161     15163     15160     15158     15161     15164
     15161     15164     15167     15168     15161     15164     15167     15169
     15161     15164     15167     15170     15162     15161     15164     15165
     15162     15161     15164     15166     15162     15161     15164     15167
     15163     15161     15164     15165     15163     15161     15164     15166
     15163     15161     15164     15167     15164     15167     15170     15171
     15164     15167     15170     15172     15164     15167     15170     15173
     15165     15164     15167     15168     15165     15164     15167     15169
     15165     15164     15167     15170     15166     15164     15167     15168
     15166     15164     15167     15169     15166     15164     15167     15170
     15167     15170     15173     15174     15167     15170     15173     15175
     15167     15170     15173     15176     15168     15167     15170     15171
     15168     15167     15170     15172     15168     15167     15170     15173
     15169     15167     15170     15171     15169     15167     15170     15172
     15169     15167     15170     15173     15170     15173     15176     15177
     15170     15173     15176     15178     15170     15173     15176     15179
     15171     15170     15173     15174     15171     15170     15173     15175
     15171     15170     15173     15176     15172     15170     15173     15174
     15172     15170     15173     15175     15172     15170     15173     15176
     15173     15176     15179     15180     15173     15176     15179     15181
     15173     15176     15179     15182     15174     15173     15176     15177
     15174     15173     15176     15178     15174     15173     15176     15179
     15175     15173     15176     15177     15175     15173     15176     15178
     15175     15173     15176     15179     15176     15179     15182     15183
     15176     15179     15182     15184     15176     15179     15182     15185
     15177     15176     15179     15180     15177     15176     15179     15181
     15177     15176     15179     15182     15178     15176     15179     15180
     15178     15176     15179     15181     15178     15176     15179     15182
     15179     15182     15185     15186     15179     15182     15185     15187
     15179     15182     15185     15188     15180     15179     15182     15183
     15180     15179     15182     15184     15180     15179     15182     15185
     15181     15179     15182     15183     15181     15179     15182     15184
     15181     15179     15182     15185     15182     15185     15188     15189
     15182     15185     15188     15190     15182     15185     15188     15191
     15183     15182     15185     15186     15183     15182     15185     15187
     15183     15182     15185     15188     15184     15182     15185     15186
     15184     15182     15185     15187     15184     15182     15185     15188
     15185     15188     15191     15192     15185     15188     15191     15193
     15185     15188     15191     15194     15186     15185     15188     15189
     15186     15185     15188     15190     15186     15185     15188     15191
     15187     15185     15188     15189     15187     15185     15188     15190
     15187     15185     15188     15191     15188     15191     15194     15195
     15188     15191     15194     15196     15188     15191     15194     15197
     15189     15188     15191     15192     15189     15188     15191     15193
     15189     15188     15191     15194     15190     15188     15191     15192
     15190     15188     15191     15193     15190     15188     15191     15194
     15191     15194     15197     15198     15191     15194     15197     15199
     15191     15194     15197     15200     15192     15191     15194     15195
     15192     15191     15194     15196     15192     15191     15194     15197
     15193     15191     15194     15195     15193     15191     15194     15196
     15193     15191     15194     15197     15194     15197     15200     15201
     15194     15197     15200     15202     15194     15197     15200     15203
     15195     15194     15197     15198     15195     15194     15197     15199
     15195     15194     15197     15200     15196     15194     15197     15198
     15196     15194     15197     15199     15196     15194     15197     15200
     15198     15197     15200     15201     15198     15197     15200     15202
     15198     15197     15200     15203     15199     15197     15200     15201
     15199     15197     15200     15202     15199     15197     15200     15203
     15204     15208     15211     15212     15204     15208     15211     15242
     15204     15250     15247     15242     15204     15250     15247     15248
     15204     15250     15247     15249     15205     15204     15206     15207
     15205     15204     15208     15209     15205     15204     15208     15210
     15205     15204     15208     15211     15205     15204     15250     15247
     15205     15204     15250     15251     15205     15204     15250     15252
     15206     15204     15208     15209     15206     15204     15208     15210
     15206     15204     15208     15211     15206     15204     15250     15247
     15206     15204     15250     15251     15206     15204     15250     15252
     15207     15206     15204     15208     15207     15206     15204     15250
     15208     15204     15250     15247     15208     15204     15250     15251
     15208     15204     15250     15252     15208     15211     15212     15213
     15208     15211     15212     15214     15208     15211     15242     15240
     15208     15211     15242     15243     15208     15211     15242     15247
     15209     15208     15204     15250     15209     15208     15211     15212
     15209     15208     15211     15242     15210     15208     15204     15250
     15210     15208     15211     15212     15210     15208     15211     15242
     15211     15208     15204     15250     15211     15212     15214     15215
     15211     15212     15214     15216     15211     15212     15214     15217
     15211     15242     15240     15217     15211     15242     15240     15237
     15211     15242     15240     15241     15211     15242     15243     15244
     15211     15242     15243     15245     15211     15242     15243     15246
     15211     15242     15247     15248     15211     15242     15247     15249
     15211     15242     15247     15250     15212     15211     15242     15240
     15212     15211     15242     15243     15212     15211     15242     15247
     15212     15214     15217     15218     15212     15214     15217     15219
     15212     15214     15217     15240     15213     15212     15211     15242
     15213     15212     15214     15215     15213     15212     15214     15216
     15213     15212     15214     15217     15214     15212     15211     15242
     15214     15217     15219     15220     15214     15217     15219     15221
     15214     15217     15219     15229     15214     15217     15240     15237
     15214     15217     15240     15241     15214     15217     15240     15242
     15215     15214     15217     15218     15215     15214     15217     15219
     15215     15214     15217     15240     15216     15214     15217     15218
     15216     15214     15217     15219     15216     15214     15217     15240
     15217     15219     15221     15222     15217     15219     15221     15223
     15217     15219     15221     15224     15217     15219     15229     15227
     15217     15219     15229     15230     15217     15219     15229     15234
     15217     15240     15237     15234     15217     15240     15237     15238
     15217     15240     15237     15239     15217     15240     15242     15243
     15217     15240     15242     15247     15218     15217     15219     15220
     15218     15217     15219     15221     15218     15217     15219     15229
     15218     15217     15240     15237     15218     15217     15240     15241
     15218     15217     15240     15242     15219     15217     15240     15237
     15219     15217     15240     15241     15219     15217     15240     15242
     15219     15221     15224     15225     15219     15221     15224     15226
     15219     15221     15224     15227     15219     15229     15227     15224
     15219     15229     15227     15228     15219     15229     15227     15253
     15219     15229     15230     15231     15219     15229     15230     15232
     15219     15229     15230     15233     15219     15229     15234     15235
     15219     15229     15234     15236     15219     15229     15234     15237
     15220     15219     15217     15240     15220     15219     15221     15222
     15220     15219     15221     15223     15220     15219     15221     15224
     15220     15219     15229     15227     15220     15219     15229     15230
     15220     15219     15229     15234     15221     15219     15217     15240
     15221     15219     15229     15227     15221     15219     15229     15230
     15221     15219     15229     15234     15221     15224     15227     15228
     15221     15224     15227     15229     15221     15224     15227     15253
     15222     15221     15219     15229     15222     15221     15224     15225
     15222     15221     15224     15226     15222     15221     15224     15227
     15223     15221     15219     15229     15223     15221     15224     15225
     15223     15221     15224     15226     15223     15221     15224     15227
     15224     15221     15219     15229     15224     15227     15229     15230
     15224     15227     15229     15234     15224     15227     15253     15254
     15224     15227     15253     15255     15224     15227     15253     15259
     15225     15224     15227     15228     15225     15224     15227     15229
     15225     15224     15227     15253     15226     15224     15227     15228
     15226     15224     15227     15229     15226     15224     15227     15253
     15227     15229     15230     15231     15227     15229     15230     15232
     15227     15229     15230     15233     15227     15229     15234     15235
     15227     15229     15234     15236     15227     15229     15234     15237
     15227     15253     15255     15256     15227     15253     15255     15257
     15227     15253     15255     15258     15227     15253     15259     15260
     15227     15253     15259     15261     15227     15253     15259     15262
     15228     15227     15229     15230     15228     15227     15229     15234
     15228     15227     15253     15254     15228     15227     15253     15255
     15228     15227     15253     15259     15229     15219     15217     15240
     15229     15227     15253     15254     15229     15227     15253     15255
     15229     15227     15253     15259     15229     15234     15237     15238
     15229     15234     15237     15239     15229     15234     15237     15240
     15230     15229     15227     15253     15230     15229     15234     15235
     15230     15229     15234     15236     15230     15229     15234     15237
     15231     15230     15229     15234     15232     15230     15229     15234
     15233     15230     15229     15234     15234     15229     15227     15253
     15234     15237     15240     15241     15234     15237     15240     15242
     15235     15234     15237     15238     15235     15234     15237     15239
     15235     15234     15237     15240     15236     15234     15237     15238
     15236     15234     15237     15239     15236     15234     15237     15240
     15237     15240     15242     15243     15237     15240     15242     15247
     15238     15237     15240     15241     15238     15237     15240     15242
     15239     15237     15240     15241     15239     15237     15240     15242
     15240     15242     15243     15244     15240     15242     15243     15245
     15240     15242     15243     15246     15240     15242     15247     15248
     15240     15242     15247     15249     15240     15242     15247     15250
     15241     15240     15242     15243     15241     15240     15242     15247
     15242     15247     15250     15251     15242     15247     15250     15252
     15243     15242     15247     15248     15243     15242     15247     15249
     15243     15242     15247     15250     15244     15243     15242     15247
     15245     15243     15242     15247     15246     15243     15242     15247
     15248     15247     15250     15251     15248     15247     15250     15252
     15249     15247     15250     15251     15249     15247     15250     15252
     15253     15259     15262     15263     15253     15259     15262     15264
     15253     15259     15262     15265     15254     15253     15255     15256
     15254     15253     15255     15257     15254     15253     15255     15258
     15254     15253     15259     15260     15254     15253     15259     15261
     15254     15253     15259     15262     15255     15253     15259     15260
     15255     15253     15259     15261     15255     15253     15259     15262
     15256     15255     15253     15259     15257     15255     15253     15259
     15258     15255     15253     15259     15259     15262     15265     15266
     15259     15262     15265     15267     15259     15262     15265     15268
     15260     15259     15262     15263     15260     15259     15262     15264
     15260     15259     15262     15265     15261     15259     15262     15263
     15261     15259     15262     15264     15261     15259     15262     15265
     15262     15265     15268     15269     15262     15265     15268     15270
     15262     15265     15268     15274     15263     15262     15265     15266
     15263     15262     15265     15267     15263     15262     15265     15268
     15264     15262     15265     15266     15264     15262     15265     15267
     15264     15262     15265     15268     15265     15268     15270     15271
     15265     15268     15270     15272     15265     15268     15270     15273
     15265     15268     15274     15275     15265     15268     15274     15276
     15265     15268     15274     15277     15266     15265     15268     15269
     15266     15265     15268     15270     15266     15265     15268     15274
     15267     15265     15268     15269     15267     15265     15268     15270
     15267     15265     15268     15274     15269     15268     15270     15271
     15269     15268     15270     15272     15269     15268     15270     15273
     15269     15268     15274     15275     15269     15268     15274     15276
     15269     15268     15274     15277     15270     15268     15274     15275
     15270     15268     15274     15276     15270     15268     15274     15277
     15271     15270     15268     15274     15272     15270     15268     15274
     15273     15270     15268     15274     15278     15282     15284     15285
     15278     15282     15284     15286     15278     15282     15287     15288
     15278     15282     15287     15289     15278     15282     15287     15293
     15279     15278     15282     15283     15279     15278     15282     15284
     15279     15278     15282     15287     15280     15278     15282     15283
     15280     15278     15282     15284     15280     15278     15282     15287
     15281     15278     15282     15283     15281     15278     15282     15284
     15281     15278     15282     15287     15282     15287     15293     15290
     15283     15282     15284     15285     15283     15282     15284     15286
     15283     15282     15287     15288     15283     15282     15287     15289
     15283     15282     15287     15293     15284     15282     15287     15288
     15284     15282     15287     15289     15284     15282     15287     15293
     15285     15284     15282     15287     15286     15284     15282     15287
     15287     15293     15290     15291     15287     15293     15290     15292
     15287     15293     15290     15294     15288     15287     15293     15290
     15289     15287     15293     15290     15290     15294     15295     15296
     15290     15294     15295     15297     15290     15294     15295     15298
     15291     15290     15294     15295     15292     15290     15294     15295
     15293     15290     15294     15295     15294     15295     15298     15299
     15294     15295     15298     15300     15294     15295     15298     15306
     15295     15298     15300     15301     15295     15298     15306     15307
     15295     15298     15306     15308     15295     15298     15306     15309
     15296     15295     15298     15299     15296     15295     15298     15300
     15296     15295     15298     15306     15297     15295     15298     15299
     15297     15295     15298     15300     15297     15295     15298     15306
     15298     15300     15301     15302     15298     15300     15301     15303
     15298     15306     15309     15310     15299     15298     15300     15301
     15299     15298     15306     15307     15299     15298     15306     15308
     15299     15298     15306     15309     15300     15298     15306     15307
     15300     15298     15306     15308     15300     15298     15306     15309
     15300     15301     15303     15304     15300     15301     15303     15305
     15300     15301     15303     15315     15301     15300     15298     15306
     15301     15303     15315     15316     15301     15303     15315     15317
     15301     15303     15315     15318     15302     15301     15303     15304
     15302     15301     15303     15305     15302     15301     15303     15315
     15303     15315     15318     15319     15303     15315     15318     15320
     15303     15315     15318     15321     15304     15303     15315     15316
     15304     15303     15315     15317     15304     15303     15315     15318
     15305     15303     15315     15316     15305     15303     15315     15317
     15305     15303     15315     15318     15306     15309     15310     15311
     15306     15309     15310     15312     15307     15306     15309     15310
     15308     15306     15309     15310     15309     15310     15312     15313
     15309     15310     15312     15314     15309     15310     15312     15362
     15310     15312     15362     15363     15310     15312     15362     15364
     15310     15312     15362     15365     15311     15310     15312     15313
     15311     15310     15312     15314     15311     15310     15312     15362
     15312     15362     15365     15366     15312     15362     15365     15367
     15312     15362     15365     15368     15313     15312     15362     15363
     15313     15312     15362     15364     15313     15312     15362     15365
     15314     15312     15362     15363     15314     15312     15362     15364
     15314     15312     15362     15365     15315     15318     15321     15322
     15315     15318     15321     15323     15316     15315     15318     15319
     15316     15315     15318     15320     15316     15315     15318     15321
     15317     15315     15318     15319     15317     15315     15318     15320
     15317     15315     15318     15321     15318     15321     15323     15324
     15318     15321     15323     15325     15319     15318     15321     15322
     15319     15318     15321     15323     15320     15318     15321     15322
     15320     15318     15321     15323     15321     15323     15325     15326
     15321     15323     15325     15327     15321     15323     15325     15328
     15322     15321     15323     15324     15322     15321     15323     15325
     15323     15325     15328     15329     15323     15325     15328     15330
     15324     15323     15325     15326     15324     15323     15325     15327
     15324     15323     15325     15328     15325     15328     15330     15331
     15325     15328     15330     15332     15326     15325     15328     15329
     15326     15325     15328     15330     15327     15325     15328     15329
     15327     15325     15328     15330     15328     15330     15332     15333
     15328     15330     15332     15334     15328     15330     15332     15335
     15329     15328     15330     15331     15329     15328     15330     15332
     15330     15332     15335     15336     15330     15332     15335     15337
     15331     15330     15332     15333     15331     15330     15332     15334
     15331     15330     15332     15335     15332     15335     15337     15338
     15332     15335     15337     15339     15333     15332     15335     15336
     15333     15332     15335     15337     15334     15332     15335     15336
     15334     15332     15335     15337     15335     15337     15339     15340
     15335     15337     15339     15341     15335     15337     15339     15342
     15336     15335     15337     15338     15336     15335     15337     15339
     15337     15339     15342     15343     15337     15339     15342     15344
     15338     15337     15339     15340     15338     15337     15339     15341
     15338     15337     15339     15342     15339     15342     15344     15345
     15339     15342     15344     15346     15340     15339     15342     15343
     15340     15339     15342     15344     15341     15339     15342     15343
     15341     15339     15342     15344     15342     15344     15346     15347
     15342     15344     15346     15348     15342     15344     15346     15349
     15343     15342     15344     15345     15343     15342     15344     15346
     15344     15346     15349     15350     15344     15346     15349     15351
     15344     15346     15349     15352     15345     15344     15346     15347
     15345     15344     15346     15348     15345     15344     15346     15349
     15346     15349     15352     15353     15346     15349     15352     15354
     15346     15349     15352     15355     15347     15346     15349     15350
     15347     15346     15349     15351     15347     15346     15349     15352
     15348     15346     15349     15350     15348     15346     15349     15351
     15348     15346     15349     15352     15349     15352     15355     15356
     15349     15352     15355     15357     15349     15352     15355     15358
     15350     15349     15352     15353     15350     15349     15352     15354
     15350     15349     15352     15355     15351     15349     15352     15353
     15351     15349     15352     15354     15351     15349     15352     15355
     15352     15355     15358     15359     15352     15355     15358     15360
     15352     15355     15358     15361     15353     15352     15355     15356
     15353     15352     15355     15357     15353     15352     15355     15358
     15354     15352     15355     15356     15354     15352     15355     15357
     15354     15352     15355     15358     15356     15355     15358     15359
     15356     15355     15358     15360     15356     15355     15358     15361
     15357     15355     15358     15359     15357     15355     15358     15360
     15357     15355     15358     15361     15362     15365     15368     15369
     15362     15365     15368     15370     15362     15365     15368     15371
     15363     15362     15365     15366     15363     15362     15365     15367
     15363     15362     15365     15368     15364     15362     15365     15366
     15364     15362     15365     15367     15364     15362     15365     15368
     15365     15368     15371     15372     15365     15368     15371     15373
     15365     15368     15371     15374     15366     15365     15368     15369
     15366     15365     15368     15370     15366     15365     15368     15371
     15367     15365     15368     15369     15367     15365     15368     15370
     15367     15365     15368     15371     15368     15371     15374     15375
     15368     15371     15374     15376     15368     15371     15374     15377
     15369     15368     15371     15372     15369     15368     15371     15373
     15369     15368     15371     15374     15370     15368     15371     15372
     15370     15368     15371     15373     15370     15368     15371     15374
     15371     15374     15377     15378     15371     15374     15377     15379
     15371     15374     15377     15380     15372     15371     15374     15375
     15372     15371     15374     15376     15372     15371     15374     15377
     15373     15371     15374     15375     15373     15371     15374     15376
     15373     15371     15374     15377     15374     15377     15380     15381
     15374     15377     15380     15382     15374     15377     15380     15383
     15375     15374     15377     15378     15375     15374     15377     15379
     15375     15374     15377     15380     15376     15374     15377     15378
     15376     15374     15377     15379     15376     15374     15377     15380
     15377     15380     15383     15384     15377     15380     15383     15385
     15377     15380     15383     15386     15378     15377     15380     15381
     15378     15377     15380     15382     15378     15377     15380     15383
     15379     15377     15380     15381     15379     15377     15380     15382
     15379     15377     15380     15383     15380     15383     15386     15387
     15380     15383     15386     15388     15380     15383     15386     15389
     15381     15380     15383     15384     15381     15380     15383     15385
     15381     15380     15383     15386     15382     15380     15383     15384
     15382     15380     15383     15385     15382     15380     15383     15386
     15383     15386     15389     15390     15383     15386     15389     15391
     15383     15386     15389     15392     15384     15383     15386     15387
     15384     15383     15386     15388     15384     15383     15386     15389
     15385     15383     15386     15387     15385     15383     15386     15388
     15385     15383     15386     15389     15386     15389     15392     15393
     15386     15389     15392     15394     15386     15389     15392     15395
     15387     15386     15389     15390     15387     15386     15389     15391
     15387     15386     15389     15392     15388     15386     15389     15390
     15388     15386     15389     15391     15388     15386     15389     15392
     15389     15392     15395     15396     15389     15392     15395     15397
     15389     15392     15395     15398     15390     15389     15392     15393
     15390     15389     15392     15394     15390     15389     15392     15395
     15391     15389     15392     15393     15391     15389     15392     15394
     15391     15389     15392     15395     15392     15395     15398     15399
     15392     15395     15398     15400     15392     15395     15398     15401
     15393     15392     15395     15396     15393     15392     15395     15397
     15393     15392     15395     15398     15394     15392     15395     15396
     15394     15392     15395     15397     15394     15392     15395     15398
     15395     15398     15401     15402     15395     15398     15401     15403
     15395     15398     15401     15404     15396     15395     15398     15399
     15396     15395     15398     15400     15396     15395     15398     15401
     15397     15395     15398     15399     15397     15395     15398     15400
     15397     15395     15398     15401     15398     15401     15404     15405
     15398     15401     15404     15406     15398     15401     15404     15407
     15399     15398     15401     15402     15399     15398     15401     15403
     15399     15398     15401     15404     15400     15398     15401     15402
     15400     15398     15401     15403     15400     15398     15401     15404
     15401     15404     15407     15408     15401     15404     15407     15409
     15401     15404     15407     15410     15402     15401     15404     15405
     15402     15401     15404     15406     15402     15401     15404     15407
     15403     15401     15404     15405     15403     15401     15404     15406
     15403     15401     15404     15407     15405     15404     15407     15408
     15405     15404     15407     15409     15405     15404     15407     15410
     15406     15404     15407     15408     15406     15404     15407     15409
     15406     15404     15407     15410     15411     15415     15418     15419
     15411     15415     15418     15420     15411     15415     15418     15424
     15412     15411     15415     15416     15412     15411     15415     15417
     15412     15411     15415     15418     15413     15411     15415     15416
     15413     15411     15415     15417     15413     15411     15415     15418
     15414     15411     15415     15416     15414     15411     15415     15417
     15414     15411     15415     15418     15415     15418     15424     15421
     15416     15415     15418     15419     15416     15415     15418     15420
     15416     15415     15418     15424     15417     15415     15418     15419
     15417     15415     15418     15420     15417     15415     15418     15424
     15418     15424     15421     15422     15418     15424     15421     15423
     15418     15424     15421     15425     15419     15418     15424     15421
     15420     15418     15424     15421     15421     15425     15426     15427
     15421     15425     15426     15428     15421     15425     15426     15429
     15422     15421     15425     15426     15423     15421     15425     15426
     15424     15421     15425     15426     15425     15426     15429     15430
     15425     15426     15429     15431     15425     15426     15429     15437
     15426     15429     15431     15432     15426     15429     15437     15438
     15426     15429     15437     15439     15426     15429     15437     15440
     15427     15426     15429     15430     15427     15426     15429     15431
     15427     15426     15429     15437     15428     15426     15429     15430
     15428     15426     15429     15431     15428     15426     15429     15437
     15429     15431     15432     15433     15429     15431     15432     15434
     15429     15437     15440     15441     15430     15429     15431     15432
     15430     15429     15437     15438     15430     15429     15437     15439
     15430     15429     15437     15440     15431     15429     15437     15438
     15431     15429     15437     15439     15431     15429     15437     15440
     15431     15432     15434     15435     15431     15432     15434     15436
     15431     15432     15434     15446     15432     15431     15429     15437
     15432     15434     15446     15447     15432     15434     15446     15448
     15432     15434     15446     15449     15433     15432     15434     15435
     15433     15432     15434     15436     15433     15432     15434     15446
     15434     15446     15449     15450     15434     15446     15449     15451
     15434     15446     15449     15452     15435     15434     15446     15447
     15435     15434     15446     15448     15435     15434     15446     15449
     15436     15434     15446     15447     15436     15434     15446     15448
     15436     15434     15446     15449     15437     15440     15441     15442
     15437     15440     15441     15443     15438     15437     15440     15441
     15439     15437     15440     15441     15440     15441     15443     15444
     15440     15441     15443     15445     15440     15441     15443     15493
     15441     15443     15493     15494     15441     15443     15493     15495
     15441     15443     15493     15496     15442     15441     15443     15444
     15442     15441     15443     15445     15442     15441     15443     15493
     15443     15493     15496     15497     15443     15493     15496     15498
     15443     15493     15496     15499     15444     15443     15493     15494
     15444     15443     15493     15495     15444     15443     15493     15496
     15445     15443     15493     15494     15445     15443     15493     15495
     15445     15443     15493     15496     15446     15449     15452     15453
     15446     15449     15452     15454     15446     15449     15452     15455
     15447     15446     15449     15450     15447     15446     15449     15451
     15447     15446     15449     15452     15448     15446     15449     15450
     15448     15446     15449     15451     15448     15446     15449     15452
     15449     15452     15455     15456     15449     15452     15455     15457
     15449     15452     15455     15458     15450     15449     15452     15453
     15450     15449     15452     15454     15450     15449     15452     15455
     15451     15449     15452     15453     15451     15449     15452     15454
     15451     15449     15452     15455     15452     15455     15458     15459
     15452     15455     15458     15460     15452     15455     15458     15461
     15453     15452     15455     15456     15453     15452     15455     15457
     15453     15452     15455     15458     15454     15452     15455     15456
     15454     15452     15455     15457     15454     15452     15455     15458
     15455     15458     15461     15462     15455     15458     15461     15463
     15455     15458     15461     15464     15456     15455     15458     15459
     15456     15455     15458     15460     15456     15455     15458     15461
     15457     15455     15458     15459     15457     15455     15458     15460
     15457     15455     15458     15461     15458     15461     15464     15465
     15458     15461     15464     15466     15459     15458     15461     15462
     15459     15458     15461     15463     15459     15458     15461     15464
     15460     15458     15461     15462     15460     15458     15461     15463
     15460     15458     15461     15464     15461     15464     15466     15467
     15461     15464     15466     15468     15462     15461     15464     15465
     15462     15461     15464     15466     15463     15461     15464     15465
     15463     15461     15464     15466     15464     15466     15468     15469
     15464     15466     15468     15470     15464     15466     15468     15471
     15465     15464     15466     15467     15465     15464     15466     15468
     15466     15468     15471     15472     15466     15468     15471     15473
     15466     15468     15471     15474     15467     15466     15468     15469
     15467     15466     15468     15470     15467     15466     15468     15471
     15468     15471     15474     15475     15468     15471     15474     15476
     15468     15471     15474     15477     15469     15468     15471     15472
     15469     15468     15471     15473     15469     15468     15471     15474
     15470     15468     15471     15472     15470     15468     15471     15473
     15470     15468     15471     15474     15471     15474     15477     15478
     15471     15474     15477     15479     15471     15474     15477     15480
     15472     15471     15474     15475     15472     15471     15474     15476
     15472     15471     15474     15477     15473     15471     15474     15475
     15473     15471     15474     15476     15473     15471     15474     15477
     15474     15477     15480     15481     15474     15477     15480     15482
     15474     15477     15480     15483     15475     15474     15477     15478
     15475     15474     15477     15479     15475     15474     15477     15480
     15476     15474     15477     15478     15476     15474     15477     15479
     15476     15474     15477     15480     15477     15480     15483     15484
     15477     15480     15483     15485     15477     15480     15483     15486
     15478     15477     15480     15481     15478     15477     15480     15482
     15478     15477     15480     15483     15479     15477     15480     15481
     15479     15477     15480     15482     15479     15477     15480     15483
     15480     15483     15486     15487     15480     15483     15486     15488
     15480     15483     15486     15489     15481     15480     15483     15484
     15481     15480     15483     15485     15481     15480     15483     15486
     15482     15480     15483     15484     15482     15480     15483     15485
     15482     15480     15483     15486     15483     15486     15489     15490
     15483     15486     15489     15491     15483     15486     15489     15492
     15484     15483     15486     15487     15484     15483     15486     15488
     15484     15483     15486     15489     15485     15483     15486     15487
     15485     15483     15486     15488     15485     15483     15486     15489
     15487     15486     15489     15490     15487     15486     15489     15491
     15487     15486     15489     15492     15488     15486     15489     15490
     15488     15486     15489     15491     15488     15486     15489     15492
     15493     15496     15499     15500     15493     15496     15499     15501
     15493     15496     15499     15502     15494     15493     15496     15497
     15494     15493     15496     15498     15494     15493     15496     15499
     15495     15493     15496     15497     15495     15493     15496     15498
     15495     15493     15496     15499     15496     15499     15502     15503
     15496     15499     15502     15504     15496     15499     15502     15505
     15497     15496     15499     15500     15497     15496     15499     15501
     15497     15496     15499     15502     15498     15496     15499     15500
     15498     15496     15499     15501     15498     15496     15499     15502
     15499     15502     15505     15506     15499     15502     15505     15507
     15499     15502     15505     15508     15500     15499     15502     15503
     15500     15499     15502     15504     15500     15499     15502     15505
     15501     15499     15502     15503     15501     15499     15502     15504
     15501     15499     15502     15505     15502     15505     15508     15509
     15502     15505     15508     15510     15502     15505     15508     15511
     15503     15502     15505     15506     15503     15502     15505     15507
     15503     15502     15505     15508     15504     15502     15505     15506
     15504     15502     15505     15507     15504     15502     15505     15508
     15505     15508     15511     15512     15505     15508     15511     15513
     15505     15508     15511     15514     15506     15505     15508     15509
     15506     15505     15508     15510     15506     15505     15508     15511
     15507     15505     15508     15509     15507     15505     15508     15510
     15507     15505     15508     15511     15508     15511     15514     15515
     15508     15511     15514     15516     15508     15511     15514     15517
     15509     15508     15511     15512     15509     15508     15511     15513
     15509     15508     15511     15514     15510     15508     15511     15512
     15510     15508     15511     15513     15510     15508     15511     15514
     15511     15514     15517     15518     15511     15514     15517     15519
     15511     15514     15517     15520     15512     15511     15514     15515
     15512     15511     15514     15516     15512     15511     15514     15517
     15513     15511     15514     15515     15513     15511     15514     15516
     15513     15511     15514     15517     15514     15517     15520     15521
     15514     15517     15520     15522     15514     15517     15520     15523
     15515     15514     15517     15518     15515     15514     15517     15519
     15515     15514     15517     15520     15516     15514     15517     15518
     15516     15514     15517     15519     15516     15514     15517     15520
     15517     15520     15523     15524     15517     15520     15523     15525
     15517     15520     15523     15526     15518     15517     15520     15521
     15518     15517     15520     15522     15518     15517     15520     15523
     15519     15517     15520     15521     15519     15517     15520     15522
     15519     15517     15520     15523     15520     15523     15526     15527
     15520     15523     15526     15528     15520     15523     15526     15529
     15521     15520     15523     15524     15521     15520     15523     15525
     15521     15520     15523     15526     15522     15520     15523     15524
     15522     15520     15523     15525     15522     15520     15523     15526
     15523     15526     15529     15530     15523     15526     15529     15531
     15523     15526     15529     15532     15524     15523     15526     15527
     15524     15523     15526     15528     15524     15523     15526     15529
     15525     15523     15526     15527     15525     15523     15526     15528
     15525     15523     15526     15529     15526     15529     15532     15533
     15526     15529     15532     15534     15526     15529     15532     15535
     15527     15526     15529     15530     15527     15526     15529     15531
     15527     15526     15529     15532     15528     15526     15529     15530
     15528     15526     15529     15531     15528     15526     15529     15532
     15529     15532     15535     15536     15529     15532     15535     15537
     15529     15532     15535     15538     15530     15529     15532     15533
     15530     15529     15532     15534     15530     15529     15532     15535
     15531     15529     15532     15533     15531     15529     15532     15534
     15531     15529     15532     15535     15532     15535     15538     15539
     15532     15535     15538     15540     15532     15535     15538     15541
     15533     15532     15535     15536     15533     15532     15535     15537
     15533     15532     15535     15538     15534     15532     15535     15536
     15534     15532     15535     15537     15534     15532     15535     15538
     15536     15535     15538     15539     15536     15535     15538     15540
     15536     15535     15538     15541     15537     15535     15538     15539
     15537     15535     15538     15540     15537     15535     15538     15541
     15542     15546     15549     15550     15542     15546     15549     15580
     15542     15588     15585     15580     15542     15588     15585     15586
     15542     15588     15585     15587     15543     15542     15544     15545
     15543     15542     15546     15547     15543     15542     15546     15548
     15543     15542     15546     15549     15543     15542     15588     15585
     15543     15542     15588     15589     15543     15542     15588     15590
     15544     15542     15546     15547     15544     15542     15546     15548
     15544     15542     15546     15549     15544     15542     15588     15585
     15544     15542     15588     15589     15544     15542     15588     15590
     15545     15544     15542     15546     15545     15544     15542     15588
     15546     15542     15588     15585     15546     15542     15588     15589
     15546     15542     15588     15590     15546     15549     15550     15551
     15546     15549     15550     15552     15546     15549     15580     15578
     15546     15549     15580     15581     15546     15549     15580     15585
     15547     15546     15542     15588     15547     15546     15549     15550
     15547     15546     15549     15580     15548     15546     15542     15588
     15548     15546     15549     15550     15548     15546     15549     15580
     15549     15546     15542     15588     15549     15550     15552     15553
     15549     15550     15552     15554     15549     15550     15552     15555
     15549     15580     15578     15555     15549     15580     15578     15575
     15549     15580     15578     15579     15549     15580     15581     15582
     15549     15580     15581     15583     15549     15580     15581     15584
     15549     15580     15585     15586     15549     15580     15585     15587
     15549     15580     15585     15588     15550     15549     15580     15578
     15550     15549     15580     15581     15550     15549     15580     15585
     15550     15552     15555     15556     15550     15552     15555     15557
     15550     15552     15555     15578     15551     15550     15549     15580
     15551     15550     15552     15553     15551     15550     15552     15554
     15551     15550     15552     15555     15552     15550     15549     15580
     15552     15555     15557     15558     15552     15555     15557     15559
     15552     15555     15557     15567     15552     15555     15578     15575
     15552     15555     15578     15579     15552     15555     15578     15580
     15553     15552     15555     15556     15553     15552     15555     15557
     15553     15552     15555     15578     15554     15552     15555     15556
     15554     15552     15555     15557     15554     15552     15555     15578
     15555     15557     15559     15560     15555     15557     15559     15561
     15555     15557     15559     15562     15555     15557     15567     15565
     15555     15557     15567     15568     15555     15557     15567     15572
     15555     15578     15575     15572     15555     15578     15575     15576
     15555     15578     15575     15577     15555     15578     15580     15581
     15555     15578     15580     15585     15556     15555     15557     15558
     15556     15555     15557     15559     15556     15555     15557     15567
     15556     15555     15578     15575     15556     15555     15578     15579
     15556     15555     15578     15580     15557     15555     15578     15575
     15557     15555     15578     15579     15557     15555     15578     15580
     15557     15559     15562     15563     15557     15559     15562     15564
     15557     15559     15562     15565     15557     15567     15565     15562
     15557     15567     15565     15566     15557     15567     15565     15591
     15557     15567     15568     15569     15557     15567     15568     15570
     15557     15567     15568     15571     15557     15567     15572     15573
     15557     15567     15572     15574     15557     15567     15572     15575
     15558     15557     15555     15578     15558     15557     15559     15560
     15558     15557     15559     15561     15558     15557     15559     15562
     15558     15557     15567     15565     15558     15557     15567     15568
     15558     15557     15567     15572     15559     15557     15555     15578
     15559     15557     15567     15565     15559     15557     15567     15568
     15559     15557     15567     15572     15559     15562     15565     15566
     15559     15562     15565     15567     15559     15562     15565     15591
     15560     15559     15557     15567     15560     15559     15562     15563
     15560     15559     15562     15564     15560     15559     15562     15565
     15561     15559     15557     15567     15561     15559     15562     15563
     15561     15559     15562     15564     15561     15559     15562     15565
     15562     15559     15557     15567     15562     15565     15567     15568
     15562     15565     15567     15572     15562     15565     15591     15592
     15562     15565     15591     15593     15562     15565     15591     15597
     15563     15562     15565     15566     15563     15562     15565     15567
     15563     15562     15565     15591     15564     15562     15565     15566
     15564     15562     15565     15567     15564     15562     15565     15591
     15565     15567     15568     15569     15565     15567     15568     15570
     15565     15567     15568     15571     15565     15567     15572     15573
     15565     15567     15572     15574     15565     15567     15572     15575
     15565     15591     15593     15594     15565     15591     15593     15595
     15565     15591     15593     15596     15565     15591     15597     15598
     15565     15591     15597     15599     15565     15591     15597     15600
     15566     15565     15567     15568     15566     15565     15567     15572
     15566     15565     15591     15592     15566     15565     15591     15593
     15566     15565     15591     15597     15567     15557     15555     15578
     15567     15565     15591     15592     15567     15565     15591     15593
     15567     15565     15591     15597     15567     15572     15575     15576
     15567     15572     15575     15577     15567     15572     15575     15578
     15568     15567     15565     15591     15568     15567     15572     15573
     15568     15567     15572     15574     15568     15567     15572     15575
     15569     15568     15567     15572     15570     15568     15567     15572
     15571     15568     15567     15572     15572     15567     15565     15591
     15572     15575     15578     15579     15572     15575     15578     15580
     15573     15572     15575     15576     15573     15572     15575     15577
     15573     15572     15575     15578     15574     15572     15575     15576
     15574     15572     15575     15577     15574     15572     15575     15578
     15575     15578     15580     15581     15575     15578     15580     15585
     15576     15575     15578     15579     15576     15575     15578     15580
     15577     15575     15578     15579     15577     15575     15578     15580
     15578     15580     15581     15582     15578     15580     15581     15583
     15578     15580     15581     15584     15578     15580     15585     15586
     15578     15580     15585     15587     15578     15580     15585     15588
     15579     15578     15580     15581     15579     15578     15580     15585
     15580     15585     15588     15589     15580     15585     15588     15590
     15581     15580     15585     15586     15581     15580     15585     15587
     15581     15580     15585     15588     15582     15581     15580     15585
     15583     15581     15580     15585     15584     15581     15580     15585
     15586     15585     15588     15589     15586     15585     15588     15590
     15587     15585     15588     15589     15587     15585     15588     15590
     15591     15597     15600     15601     15591     15597     15600     15602
     15591     15597     15600     15603     15592     15591     15593     15594
     15592     15591     15593     15595     15592     15591     15593     15596
     15592     15591     15597     15598     15592     15591     15597     15599
     15592     15591     15597     15600     15593     15591     15597     15598
     15593     15591     15597     15599     15593     15591     15597     15600
     15594     15593     15591     15597     15595     15593     15591     15597
     15596     15593     15591     15597     15597     15600     15603     15604
     15597     15600     15603     15605     15597     15600     15603     15606
     15598     15597     15600     15601     15598     15597     15600     15602
     15598     15597     15600     15603     15599     15597     15600     15601
     15599     15597     15600     15602     15599     15597     15600     15603
     15600     15603     15606     15607     15600     15603     15606     15608
     15600     15603     15606     15612     15601     15600     15603     15604
     15601     15600     15603     15605     15601     15600     15603     15606
     15602     15600     15603     15604     15602     15600     15603     15605
     15602     15600     15603     15606     15603     15606     15608     15609
     15603     15606     15608     15610     15603     15606     15608     15611
     15603     15606     15612     15613     15603     15606     15612     15614
     15603     15606     15612     15615     15604     15603     15606     15607
     15604     15603     15606     15608     15604     15603     15606     15612
     15605     15603     15606     15607     15605     15603     15606     15608
     15605     15603     15606     15612     15607     15606     15608     15609
     15607     15606     15608     15610     15607     15606     15608     15611
     15607     15606     15612     15613     15607     15606     15612     15614
     15607     15606     15612     15615     15608     15606     15612     15613
     15608     15606     15612     15614     15608     15606     15612     15615
     15609     15608     15606     15612     15610     15608     15606     15612
     15611     15608     15606     15612     15616     15620     15623     15624
     15616     15620     15623     15654     15616     15662     15659     15654
     15616     15662     15659     15660     15616     15662     15659     15661
     15617     15616     15618     15619     15617     15616     15620     15621
     15617     15616     15620     15622     15617     15616     15620     15623
     15617     15616     15662     15659     15617     15616     15662     15663
     15617     15616     15662     15664     15618     15616     15620     15621
     15618     15616     15620     15622     15618     15616     15620     15623
     15618     15616     15662     15659     15618     15616     15662     15663
     15618     15616     15662     15664     15619     15618     15616     15620
     15619     15618     15616     15662     15620     15616     15662     15659
     15620     15616     15662     15663     15620     15616     15662     15664
     15620     15623     15624     15625     15620     15623     15624     15626
     15620     15623     15654     15652     15620     15623     15654     15655
     15620     15623     15654     15659     15621     15620     15616     15662
     15621     15620     15623     15624     15621     15620     15623     15654
     15622     15620     15616     15662     15622     15620     15623     15624
     15622     15620     15623     15654     15623     15620     15616     15662
     15623     15624     15626     15627     15623     15624     15626     15628
     15623     15624     15626     15629     15623     15654     15652     15629
     15623     15654     15652     15649     15623     15654     15652     15653
     15623     15654     15655     15656     15623     15654     15655     15657
     15623     15654     15655     15658     15623     15654     15659     15660
     15623     15654     15659     15661     15623     15654     15659     15662
     15624     15623     15654     15652     15624     15623     15654     15655
     15624     15623     15654     15659     15624     15626     15629     15630
     15624     15626     15629     15631     15624     15626     15629     15652
     15625     15624     15623     15654     15625     15624     15626     15627
     15625     15624     15626     15628     15625     15624     15626     15629
     15626     15624     15623     15654     15626     15629     15631     15632
     15626     15629     15631     15633     15626     15629     15631     15641
     15626     15629     15652     15649     15626     15629     15652     15653
     15626     15629     15652     15654     15627     15626     15629     15630
     15627     15626     15629     15631     15627     15626     15629     15652
     15628     15626     15629     15630     15628     15626     15629     15631
     15628     15626     15629     15652     15629     15631     15633     15634
     15629     15631     15633     15635     15629     15631     15633     15636
     15629     15631     15641     15639     15629     15631     15641     15642
     15629     15631     15641     15646     15629     15652     15649     15646
     15629     15652     15649     15650     15629     15652     15649     15651
     15629     15652     15654     15655     15629     15652     15654     15659
     15630     15629     15631     15632     15630     15629     15631     15633
     15630     15629     15631     15641     15630     15629     15652     15649
     15630     15629     15652     15653     15630     15629     15652     15654
     15631     15629     15652     15649     15631     15629     15652     15653
     15631     15629     15652     15654     15631     15633     15636     15637
     15631     15633     15636     15638     15631     15633     15636     15639
     15631     15641     15639     15636     15631     15641     15639     15640
     15631     15641     15639     15665     15631     15641     15642     15643
     15631     15641     15642     15644     15631     15641     15642     15645
     15631     15641     15646     15647     15631     15641     15646     15648
     15631     15641     15646     15649     15632     15631     15629     15652
     15632     15631     15633     15634     15632     15631     15633     15635
     15632     15631     15633     15636     15632     15631     15641     15639
     15632     15631     15641     15642     15632     15631     15641     15646
     15633     15631     15629     15652     15633     15631     15641     15639
     15633     15631     15641     15642     15633     15631     15641     15646
     15633     15636     15639     15640     15633     15636     15639     15641
     15633     15636     15639     15665     15634     15633     15631     15641
     15634     15633     15636     15637     15634     15633     15636     15638
     15634     15633     15636     15639     15635     15633     15631     15641
     15635     15633     15636     15637     15635     15633     15636     15638
     15635     15633     15636     15639     15636     15633     15631     15641
     15636     15639     15641     15642     15636     15639     15641     15646
     15636     15639     15665     15666     15636     15639     15665     15667
     15636     15639     15665     15671     15637     15636     15639     15640
     15637     15636     15639     15641     15637     15636     15639     15665
     15638     15636     15639     15640     15638     15636     15639     15641
     15638     15636     15639     15665     15639     15641     15642     15643
     15639     15641     15642     15644     15639     15641     15642     15645
     15639     15641     15646     15647     15639     15641     15646     15648
     15639     15641     15646     15649     15639     15665     15667     15668
     15639     15665     15667     15669     15639     15665     15667     15670
     15639     15665     15671     15672     15639     15665     15671     15673
     15639     15665     15671     15674     15640     15639     15641     15642
     15640     15639     15641     15646     15640     15639     15665     15666
     15640     15639     15665     15667     15640     15639     15665     15671
     15641     15631     15629     15652     15641     15639     15665     15666
     15641     15639     15665     15667     15641     15639     15665     15671
     15641     15646     15649     15650     15641     15646     15649     15651
     15641     15646     15649     15652     15642     15641     15639     15665
     15642     15641     15646     15647     15642     15641     15646     15648
     15642     15641     15646     15649     15643     15642     15641     15646
     15644     15642     15641     15646     15645     15642     15641     15646
     15646     15641     15639     15665     15646     15649     15652     15653
     15646     15649     15652     15654     15647     15646     15649     15650
     15647     15646     15649     15651     15647     15646     15649     15652
     15648     15646     15649     15650     15648     15646     15649     15651
     15648     15646     15649     15652     15649     15652     15654     15655
     15649     15652     15654     15659     15650     15649     15652     15653
     15650     15649     15652     15654     15651     15649     15652     15653
     15651     15649     15652     15654     15652     15654     15655     15656
     15652     15654     15655     15657     15652     15654     15655     15658
     15652     15654     15659     15660     15652     15654     15659     15661
     15652     15654     15659     15662     15653     15652     15654     15655
     15653     15652     15654     15659     15654     15659     15662     15663
     15654     15659     15662     15664     15655     15654     15659     15660
     15655     15654     15659     15661     15655     15654     15659     15662
     15656     15655     15654     15659     15657     15655     15654     15659
     15658     15655     15654     15659     15660     15659     15662     15663
     15660     15659     15662     15664     15661     15659     15662     15663
     15661     15659     15662     15664     15665     15671     15674     15675
     15665     15671     15674     15676     15665     15671     15674     15677
     15666     15665     15667     15668     15666     15665     15667     15669
     15666     15665     15667     15670     15666     15665     15671     15672
     15666     15665     15671     15673     15666     15665     15671     15674
     15667     15665     15671     15672     15667     15665     15671     15673
     15667     15665     15671     15674     15668     15667     15665     15671
     15669     15667     15665     15671     15670     15667     15665     15671
     15671     15674     15677     15678     15671     15674     15677     15679
     15671     15674     15677     15680     15672     15671     15674     15675
     15672     15671     15674     15676     15672     15671     15674     15677
     15673     15671     15674     15675     15673     15671     15674     15676
     15673     15671     15674     15677     15674     15677     15680     15681
     15674     15677     15680     15682     15674     15677     15680     15686
     15675     15674     15677     15678     15675     15674     15677     15679
     15675     15674     15677     15680     15676     15674     15677     15678
     15676     15674     15677     15679     15676     15674     15677     15680
     15677     15680     15682     15683     15677     15680     15682     15684
     15677     15680     15682     15685     15677     15680     15686     15687
     15677     15680     15686     15688     15677     15680     15686     15689
     15678     15677     15680     15681     15678     15677     15680     15682
     15678     15677     15680     15686     15679     15677     15680     15681
     15679     15677     15680     15682     15679     15677     15680     15686
     15681     15680     15682     15683     15681     15680     15682     15684
     15681     15680     15682     15685     15681     15680     15686     15687
     15681     15680     15686     15688     15681     15680     15686     15689
     15682     15680     15686     15687     15682     15680     15686     15688
     15682     15680     15686     15689     15683     15682     15680     15686
     15684     15682     15680     15686     15685     15682     15680     15686
     15690     15703     15706     15707     15690     15703     15706     15708
     15690     15703     15706     15713     15691     15690     15695     15696
     15691     15690     15695     15697     15691     15690     15695     15698
     15691     15690     15699     15700     15691     15690     15699     15701
     15691     15690     15699     15702     15691     15690     15703     15704
     15691     15690     15703     15705     15691     15690     15703     15706
     15692     15691     15690     15695     15692     15691     15690     15699
     15692     15691     15690     15703     15693     15691     15690     15695
     15693     15691     15690     15699     15693     15691     15690     15703
     15694     15691     15690     15695     15694     15691     15690     15699
     15694     15691     15690     15703     15695     15690     15699     15700
     15695     15690     15699     15701     15695     15690     15699     15702
     15695     15690     15703     15704     15695     15690     15703     15705
     15695     15690     15703     15706     15696     15695     15690     15699
     15696     15695     15690     15703     15697     15695     15690     15699
     15697     15695     15690     15703     15698     15695     15690     15699
     15698     15695     15690     15703     15699     15690     15703     15704
     15699     15690     15703     15705     15699     15690     15703     15706
     15700     15699     15690     15703     15701     15699     15690     15703
     15702     15699     15690     15703     15703     15706     15713     15709
     15704     15703     15706     15707     15704     15703     15706     15708
     15704     15703     15706     15713     15705     15703     15706     15707
     15705     15703     15706     15708     15705     15703     15706     15713
     15706     15713     15709     15710     15706     15713     15709     15711
     15706     15713     15709     15712     15707     15706     15713     15709
     15708     15706     15713     15709     15709     15712     15714     15715
     15709     15712     15714     15716     15709     15712     15714     15719
     15710     15709     15712     15714     15711     15709     15712     15714
     15712     15714     15719     15717     15712     15714     15719     15720
     15712     15714     15719     15721     15713     15709     15712     15714
     15714     15719     15717     15718     15714     15719     15717     15769
     15714     15719     15721     15722     15714     15719     15721     15723
     15714     15719     15721     15725     15715     15714     15719     15717
     15715     15714     15719     15720     15715     15714     15719     15721
     15716     15714     15719     15717     15716     15714     15719     15720
     15716     15714     15719     15721     15717     15719     15721     15722
     15717     15719     15721     15723     15717     15719     15721     15725
     15717     15769     15771     15772     15717     15769     15771     15773
     15717     15769     15771     15774     15718     15717     15719     15720
     15718     15717     15719     15721     15718     15717     15769     15770
     15718     15717     15769     15771     15719     15717     15769     15770
     15719     15717     15769     15771     15719     15721     15723     15724
     15719     15721     15725     15726     15719     15721     15725     15727
     15720     15719     15717     15769     15720     15719     15721     15722
     15720     15719     15721     15723     15720     15719     15721     15725
     15721     15719     15717     15769     15721     15725     15727     15728
     15721     15725     15727     15729     15722     15721     15723     15724
     15722     15721     15725     15726     15722     15721     15725     15727
     15723     15721     15725     15726     15723     15721     15725     15727
     15724     15723     15721     15725     15725     15727     15729     15730
     15725     15727     15729     15731     15725     15727     15729     15732
     15726     15725     15727     15728     15726     15725     15727     15729
     15727     15729     15732     15733     15727     15729     15732     15734
     15727     15729     15732     15735     15728     15727     15729     15730
     15728     15727     15729     15731     15728     15727     15729     15732
     15729     15732     15735     15736     15729     15732     15735     15737
     15729     15732     15735     15738     15730     15729     15732     15733
     15730     15729     15732     15734     15730     15729     15732     15735
     15731     15729     15732     15733     15731     15729     15732     15734
     15731     15729     15732     15735     15732     15735     15738     15739
     15732     15735     15738     15740     15732     15735     15738     15741
     15733     15732     15735     15736     15733     15732     15735     15737
     15733     15732     15735     15738     15734     15732     15735     15736
     15734     15732     15735     15737     15734     15732     15735     15738
     15735     15738     15741     15742     15735     15738     15741     15743
     15735     15738     15741     15744     15736     15735     15738     15739
     15736     15735     15738     15740     15736     15735     15738     15741
     15737     15735     15738     15739     15737     15735     15738     15740
     15737     15735     15738     15741     15738     15741     15744     15745
     15738     15741     15744     15746     15738     15741     15744     15747
     15739     15738     15741     15742     15739     15738     15741     15743
     15739     15738     15741     15744     15740     15738     15741     15742
     15740     15738     15741     15743     15740     15738     15741     15744
     15741     15744     15747     15748     15741     15744     15747     15749
     15741     15744     15747     15750     15742     15741     15744     15745
     15742     15741     15744     15746     15742     15741     15744     15747
     15743     15741     15744     15745     15743     15741     15744     15746
     15743     15741     15744     15747     15744     15747     15750     15751
     15744     15747     15750     15752     15744     15747     15750     15753
     15745     15744     15747     15748     15745     15744     15747     15749
     15745     15744     15747     15750     15746     15744     15747     15748
     15746     15744     15747     15749     15746     15744     15747     15750
     15747     15750     15753     15754     15747     15750     15753     15755
     15747     15750     15753     15756     15748     15747     15750     15751
     15748     15747     15750     15752     15748     15747     15750     15753
     15749     15747     15750     15751     15749     15747     15750     15752
     15749     15747     15750     15753     15750     15753     15756     15757
     15750     15753     15756     15758     15750     15753     15756     15759
     15751     15750     15753     15754     15751     15750     15753     15755
     15751     15750     15753     15756     15752     15750     15753     15754
     15752     15750     15753     15755     15752     15750     15753     15756
     15753     15756     15759     15760     15753     15756     15759     15761
     15753     15756     15759     15762     15754     15753     15756     15757
     15754     15753     15756     15758     15754     15753     15756     15759
     15755     15753     15756     15757     15755     15753     15756     15758
     15755     15753     15756     15759     15756     15759     15762     15763
     15756     15759     15762     15764     15756     15759     15762     15765
     15757     15756     15759     15760     15757     15756     15759     15761
     15757     15756     15759     15762     15758     15756     15759     15760
     15758     15756     15759     15761     15758     15756     15759     15762
     15759     15762     15765     15766     15759     15762     15765     15767
     15759     15762     15765     15768     15760     15759     15762     15763
     15760     15759     15762     15764     15760     15759     15762     15765
     15761     15759     15762     15763     15761     15759     15762     15764
     15761     15759     15762     15765     15763     15762     15765     15766
     15763     15762     15765     15767     15763     15762     15765     15768
     15764     15762     15765     15766     15764     15762     15765     15767
     15764     15762     15765     15768     15769     15771     15774     15775
     15769     15771     15774     15776     15769     15771     15774     15777
     15770     15769     15771     15772     15770     15769     15771     15773
     15770     15769     15771     15774     15771     15774     15777     15778
     15771     15774     15777     15779     15771     15774     15777     15780
     15772     15771     15774     15775     15772     15771     15774     15776
     15772     15771     15774     15777     15773     15771     15774     15775
     15773     15771     15774     15776     15773     15771     15774     15777
     15774     15777     15780     15781     15774     15777     15780     15782
     15774     15777     15780     15783     15775     15774     15777     15778
     15775     15774     15777     15779     15775     15774     15777     15780
     15776     15774     15777     15778     15776     15774     15777     15779
     15776     15774     15777     15780     15777     15780     15783     15784
     15777     15780     15783     15785     15777     15780     15783     15786
     15778     15777     15780     15781     15778     15777     15780     15782
     15778     15777     15780     15783     15779     15777     15780     15781
     15779     15777     15780     15782     15779     15777     15780     15783
     15780     15783     15786     15787     15780     15783     15786     15788
     15780     15783     15786     15789     15781     15780     15783     15784
     15781     15780     15783     15785     15781     15780     15783     15786
     15782     15780     15783     15784     15782     15780     15783     15785
     15782     15780     15783     15786     15783     15786     15789     15790
     15783     15786     15789     15791     15783     15786     15789     15792
     15784     15783     15786     15787     15784     15783     15786     15788
     15784     15783     15786     15789     15785     15783     15786     15787
     15785     15783     15786     15788     15785     15783     15786     15789
     15786     15789     15792     15793     15786     15789     15792     15794
     15787     15786     15789     15790     15787     15786     15789     15791
     15787     15786     15789     15792     15788     15786     15789     15790
     15788     15786     15789     15791     15788     15786     15789     15792
     15789     15792     15794     15795     15789     15792     15794     15796
     15790     15789     15792     15793     15790     15789     15792     15794
     15791     15789     15792     15793     15791     15789     15792     15794
     15792     15794     15796     15797     15792     15794     15796     15798
     15792     15794     15796     15799     15793     15792     15794     15795
     15793     15792     15794     15796     15794     15796     15799     15800
     15794     15796     15799     15801     15794     15796     15799     15802
     15795     15794     15796     15797     15795     15794     15796     15798
     15795     15794     15796     15799     15796     15799     15802     15803
     15796     15799     15802     15804     15796     15799     15802     15805
     15797     15796     15799     15800     15797     15796     15799     15801
     15797     15796     15799     15802     15798     15796     15799     15800
     15798     15796     15799     15801     15798     15796     15799     15802
     15799     15802     15805     15806     15799     15802     15805     15807
     15799     15802     15805     15808     15800     15799     15802     15803
     15800     15799     15802     15804     15800     15799     15802     15805
     15801     15799     15802     15803     15801     15799     15802     15804
     15801     15799     15802     15805     15802     15805     15808     15809
     15802     15805     15808     15810     15802     15805     15808     15811
     15803     15802     15805     15806     15803     15802     15805     15807
     15803     15802     15805     15808     15804     15802     15805     15806
     15804     15802     15805     15807     15804     15802     15805     15808
     15805     15808     15811     15812     15805     15808     15811     15813
     15805     15808     15811     15814     15806     15805     15808     15809
     15806     15805     15808     15810     15806     15805     15808     15811
     15807     15805     15808     15809     15807     15805     15808     15810
     15807     15805     15808     15811     15808     15811     15814     15815
     15808     15811     15814     15816     15808     15811     15814     15817
     15809     15808     15811     15812     15809     15808     15811     15813
     15809     15808     15811     15814     15810     15808     15811     15812
     15810     15808     15811     15813     15810     15808     15811     15814
     15811     15814     15817     15818     15811     15814     15817     15819
     15811     15814     15817     15820     15812     15811     15814     15815
     15812     15811     15814     15816     15812     15811     15814     15817
     15813     15811     15814     15815     15813     15811     15814     15816
     15813     15811     15814     15817     15815     15814     15817     15818
     15815     15814     15817     15819     15815     15814     15817     15820
     15816     15814     15817     15818     15816     15814     15817     15819
     15816     15814     15817     15820     15821     15825     15828     15829
     15821     15825     15828     15830     15821     15825     15828     15834
     15822     15821     15825     15826     15822     15821     15825     15827
     15822     15821     15825     15828     15823     15821     15825     15826
     15823     15821     15825     15827     15823     15821     15825     15828
     15824     15821     15825     15826     15824     15821     15825     15827
     15824     15821     15825     15828     15825     15828     15834     15831
     15826     15825     15828     15829     15826     15825     15828     15830
     15826     15825     15828     15834     15827     15825     15828     15829
     15827     15825     15828     15830     15827     15825     15828     15834
     15828     15834     15831     15832     15828     15834     15831     15833
     15828     15834     15831     15835     15829     15828     15834     15831
     15830     15828     15834     15831     15831     15835     15836     15837
     15831     15835     15836     15838     15831     15835     15836     15839
     15832     15831     15835     15836     15833     15831     15835     15836
     15834     15831     15835     15836     15835     15836     15839     15840
     15835     15836     15839     15841     15835     15836     15839     15847
     15836     15839     15841     15842     15836     15839     15847     15848
     15836     15839     15847     15849     15836     15839     15847     15850
     15837     15836     15839     15840     15837     15836     15839     15841
     15837     15836     15839     15847     15838     15836     15839     15840
     15838     15836     15839     15841     15838     15836     15839     15847
     15839     15841     15842     15843     15839     15841     15842     15844
     15839     15847     15850     15851     15840     15839     15841     15842
     15840     15839     15847     15848     15840     15839     15847     15849
     15840     15839     15847     15850     15841     15839     15847     15848
     15841     15839     15847     15849     15841     15839     15847     15850
     15841     15842     15844     15845     15841     15842     15844     15846
     15841     15842     15844     15856     15842     15841     15839     15847
     15842     15844     15856     15857     15842     15844     15856     15858
     15842     15844     15856     15859     15843     15842     15844     15845
     15843     15842     15844     15846     15843     15842     15844     15856
     15844     15856     15859     15860     15844     15856     15859     15861
     15844     15856     15859     15862     15845     15844     15856     15857
     15845     15844     15856     15858     15845     15844     15856     15859
     15846     15844     15856     15857     15846     15844     15856     15858
     15846     15844     15856     15859     15847     15850     15851     15852
     15847     15850     15851     15853     15848     15847     15850     15851
     15849     15847     15850     15851     15850     15851     15853     15854
     15850     15851     15853     15855     15850     15851     15853     15903
     15851     15853     15903     15904     15851     15853     15903     15905
     15851     15853     15903     15906     15852     15851     15853     15854
     15852     15851     15853     15855     15852     15851     15853     15903
     15853     15903     15906     15907     15853     15903     15906     15908
     15853     15903     15906     15909     15854     15853     15903     15904
     15854     15853     15903     15905     15854     15853     15903     15906
     15855     15853     15903     15904     15855     15853     15903     15905
     15855     15853     15903     15906     15856     15859     15862     15863
     15856     15859     15862     15864     15857     15856     15859     15860
     15857     15856     15859     15861     15857     15856     15859     15862
     15858     15856     15859     15860     15858     15856     15859     15861
     15858     15856     15859     15862     15859     15862     15864     15865
     15859     15862     15864     15866     15860     15859     15862     15863
     15860     15859     15862     15864     15861     15859     15862     15863
     15861     15859     15862     15864     15862     15864     15866     15867
     15862     15864     15866     15868     15862     15864     15866     15869
     15863     15862     15864     15865     15863     15862     15864     15866
     15864     15866     15869     15870     15864     15866     15869     15871
     15865     15864     15866     15867     15865     15864     15866     15868
     15865     15864     15866     15869     15866     15869     15871     15872
     15866     15869     15871     15873     15867     15866     15869     15870
     15867     15866     15869     15871     15868     15866     15869     15870
     15868     15866     15869     15871     15869     15871     15873     15874
     15869     15871     15873     15875     15869     15871     15873     15876
     15870     15869     15871     15872     15870     15869     15871     15873
     15871     15873     15876     15877     15871     15873     15876     15878
     15872     15871     15873     15874     15872     15871     15873     15875
     15872     15871     15873     15876     15873     15876     15878     15879
     15873     15876     15878     15880     15874     15873     15876     15877
     15874     15873     15876     15878     15875     15873     15876     15877
     15875     15873     15876     15878     15876     15878     15880     15881
     15876     15878     15880     15882     15876     15878     15880     15883
     15877     15876     15878     15879     15877     15876     15878     15880
     15878     15880     15883     15884     15878     15880     15883     15885
     15879     15878     15880     15881     15879     15878     15880     15882
     15879     15878     15880     15883     15880     15883     15885     15886
     15880     15883     15885     15887     15881     15880     15883     15884
     15881     15880     15883     15885     15882     15880     15883     15884
     15882     15880     15883     15885     15883     15885     15887     15888
     15883     15885     15887     15889     15883     15885     15887     15890
     15884     15883     15885     15886     15884     15883     15885     15887
     15885     15887     15890     15891     15885     15887     15890     15892
     15885     15887     15890     15893     15886     15885     15887     15888
     15886     15885     15887     15889     15886     15885     15887     15890
     15887     15890     15893     15894     15887     15890     15893     15895
     15887     15890     15893     15896     15888     15887     15890     15891
     15888     15887     15890     15892     15888     15887     15890     15893
     15889     15887     15890     15891     15889     15887     15890     15892
     15889     15887     15890     15893     15890     15893     15896     15897
     15890     15893     15896     15898     15890     15893     15896     15899
     15891     15890     15893     15894     15891     15890     15893     15895
     15891     15890     15893     15896     15892     15890     15893     15894
     15892     15890     15893     15895     15892     15890     15893     15896
     15893     15896     15899     15900     15893     15896     15899     15901
     15893     15896     15899     15902     15894     15893     15896     15897
     15894     15893     15896     15898     15894     15893     15896     15899
     15895     15893     15896     15897     15895     15893     15896     15898
     15895     15893     15896     15899     15897     15896     15899     15900
     15897     15896     15899     15901     15897     15896     15899     15902
     15898     15896     15899     15900     15898     15896     15899     15901
     15898     15896     15899     15902     15903     15906     15909     15910
     15903     15906     15909     15911     15903     15906     15909     15912
     15904     15903     15906     15907     15904     15903     15906     15908
     15904     15903     15906     15909     15905     15903     15906     15907
     15905     15903     15906     15908     15905     15903     15906     15909
     15906     15909     15912     15913     15906     15909     15912     15914
     15906     15909     15912     15915     15907     15906     15909     15910
     15907     15906     15909     15911     15907     15906     15909     15912
     15908     15906     15909     15910     15908     15906     15909     15911
     15908     15906     15909     15912     15909     15912     15915     15916
     15909     15912     15915     15917     15909     15912     15915     15918
     15910     15909     15912     15913     15910     15909     15912     15914
     15910     15909     15912     15915     15911     15909     15912     15913
     15911     15909     15912     15914     15911     15909     15912     15915
     15912     15915     15918     15919     15912     15915     15918     15920
     15912     15915     15918     15921     15913     15912     15915     15916
     15913     15912     15915     15917     15913     15912     15915     15918
     15914     15912     15915     15916     15914     15912     15915     15917
     15914     15912     15915     15918     15915     15918     15921     15922
     15915     15918     15921     15923     15915     15918     15921     15924
     15916     15915     15918     15919     15916     15915     15918     15920
     15916     15915     15918     15921     15917     15915     15918     15919
     15917     15915     15918     15920     15917     15915     15918     15921
     15918     15921     15924     15925     15918     15921     15924     15926
     15918     15921     15924     15927     15919     15918     15921     15922
     15919     15918     15921     15923     15919     15918     15921     15924
     15920     15918     15921     15922     15920     15918     15921     15923
     15920     15918     15921     15924     15921     15924     15927     15928
     15921     15924     15927     15929     15921     15924     15927     15930
     15922     15921     15924     15925     15922     15921     15924     15926
     15922     15921     15924     15927     15923     15921     15924     15925
     15923     15921     15924     15926     15923     15921     15924     15927
     15924     15927     15930     15931     15924     15927     15930     15932
     15924     15927     15930     15933     15925     15924     15927     15928
     15925     15924     15927     15929     15925     15924     15927     15930
     15926     15924     15927     15928     15926     15924     15927     15929
     15926     15924     15927     15930     15927     15930     15933     15934
     15927     15930     15933     15935     15927     15930     15933     15936
     15928     15927     15930     15931     15928     15927     15930     15932
     15928     15927     15930     15933     15929     15927     15930     15931
     15929     15927     15930     15932     15929     15927     15930     15933
     15930     15933     15936     15937     15930     15933     15936     15938
     15930     15933     15936     15939     15931     15930     15933     15934
     15931     15930     15933     15935     15931     15930     15933     15936
     15932     15930     15933     15934     15932     15930     15933     15935
     15932     15930     15933     15936     15933     15936     15939     15940
     15933     15936     15939     15941     15933     15936     15939     15942
     15934     15933     15936     15937     15934     15933     15936     15938
     15934     15933     15936     15939     15935     15933     15936     15937
     15935     15933     15936     15938     15935     15933     15936     15939
     15936     15939     15942     15943     15936     15939     15942     15944
     15936     15939     15942     15945     15937     15936     15939     15940
     15937     15936     15939     15941     15937     15936     15939     15942
     15938     15936     15939     15940     15938     15936     15939     15941
     15938     15936     15939     15942     15939     15942     15945     15946
     15939     15942     15945     15947     15939     15942     15945     15948
     15940     15939     15942     15943     15940     15939     15942     15944
     15940     15939     15942     15945     15941     15939     15942     15943
     15941     15939     15942     15944     15941     15939     15942     15945
     15942     15945     15948     15949     15942     15945     15948     15950
     15942     15945     15948     15951     15943     15942     15945     15946
     15943     15942     15945     15947     15943     15942     15945     15948
     15944     15942     15945     15946     15944     15942     15945     15947
     15944     15942     15945     15948     15946     15945     15948     15949
     15946     15945     15948     15950     15946     15945     15948     15951
     15947     15945     15948     15949     15947     15945     15948     15950
     15947     15945     15948     15951     15952     15965     15968     15969
     15952     15965     15968     15970     15952     15965     15968     15974
     15953     15952     15957     15958     15953     15952     15957     15959
     15953     15952     15957     15960     15953     15952     15961     15962
     15953     15952     15961     15963     15953     15952     15961     15964
     15953     15952     15965     15966     15953     15952     15965     15967
     15953     15952     15965     15968     15954     15953     15952     15957
     15954     15953     15952     15961     15954     15953     15952     15965
     15955     15953     15952     15957     15955     15953     15952     15961
     15955     15953     15952     15965     15956     15953     15952     15957
     15956     15953     15952     15961     15956     15953     15952     15965
     15957     15952     15961     15962     15957     15952     15961     15963
     15957     15952     15961     15964     15957     15952     15965     15966
     15957     15952     15965     15967     15957     15952     15965     15968
     15958     15957     15952     15961     15958     15957     15952     15965
     15959     15957     15952     15961     15959     15957     15952     15965
     15960     15957     15952     15961     15960     15957     15952     15965
     15961     15952     15965     15966     15961     15952     15965     15967
     15961     15952     15965     15968     15962     15961     15952     15965
     15963     15961     15952     15965     15964     15961     15952     15965
     15965     15968     15974     15971     15966     15965     15968     15969
     15966     15965     15968     15970     15966     15965     15968     15974
     15967     15965     15968     15969     15967     15965     15968     15970
     15967     15965     15968     15974     15968     15974     15971     15972
     15968     15974     15971     15973     15968     15974     15971     15975
     15969     15968     15974     15971     15970     15968     15974     15971
     15971     15975     15976     15977     15971     15975     15976     15978
     15971     15975     15976     15979     15972     15971     15975     15976
     15973     15971     15975     15976     15974     15971     15975     15976
     15975     15976     15979     15980     15975     15976     15979     15981
     15975     15976     15979     15987     15976     15979     15981     15982
     15976     15979     15987     15988     15976     15979     15987     15989
     15976     15979     15987     15990     15977     15976     15979     15980
     15977     15976     15979     15981     15977     15976     15979     15987
     15978     15976     15979     15980     15978     15976     15979     15981
     15978     15976     15979     15987     15979     15981     15982     15983
     15979     15981     15982     15984     15979     15987     15990     15991
     15980     15979     15981     15982     15980     15979     15987     15988
     15980     15979     15987     15989     15980     15979     15987     15990
     15981     15979     15987     15988     15981     15979     15987     15989
     15981     15979     15987     15990     15981     15982     15984     15985
     15981     15982     15984     15986     15981     15982     15984     15996
     15982     15981     15979     15987     15982     15984     15996     15997
     15982     15984     15996     15998     15982     15984     15996     15999
     15983     15982     15984     15985     15983     15982     15984     15986
     15983     15982     15984     15996     15984     15996     15999     16000
     15984     15996     15999     16001     15984     15996     15999     16002
     15985     15984     15996     15997     15985     15984     15996     15998
     15985     15984     15996     15999     15986     15984     15996     15997
     15986     15984     15996     15998     15986     15984     15996     15999
     15987     15990     15991     15992     15987     15990     15991     15993
     15988     15987     15990     15991     15989     15987     15990     15991
     15990     15991     15993     15994     15990     15991     15993     15995
     15990     15991     15993     16041     15991     15993     16041     16042
     15991     15993     16041     16043     15991     15993     16041     16044
     15992     15991     15993     15994     15992     15991     15993     15995
     15992     15991     15993     16041     15993     16041     16044     16045
     15993     16041     16044     16046     15993     16041     16044     16047
     15994     15993     16041     16042     15994     15993     16041     16043
     15994     15993     16041     16044     15995     15993     16041     16042
     15995     15993     16041     16043     15995     15993     16041     16044
     15996     15999     16002     16003     15996     15999     16002     16004
     15996     15999     16002     16005     15997     15996     15999     16000
     15997     15996     15999     16001     15997     15996     15999     16002
     15998     15996     15999     16000     15998     15996     15999     16001
     15998     15996     15999     16002     15999     16002     16005     16006
     15999     16002     16005     16007     15999     16002     16005     16008
     16000     15999     16002     16003     16000     15999     16002     16004
     16000     15999     16002     16005     16001     15999     16002     16003
     16001     15999     16002     16004     16001     15999     16002     16005
     16002     16005     16008     16009     16002     16005     16008     16010
     16002     16005     16008     16011     16003     16002     16005     16006
     16003     16002     16005     16007     16003     16002     16005     16008
     16004     16002     16005     16006     16004     16002     16005     16007
     16004     16002     16005     16008     16005     16008     16011     16012
     16005     16008     16011     16013     16005     16008     16011     16014
     16006     16005     16008     16009     16006     16005     16008     16010
     16006     16005     16008     16011     16007     16005     16008     16009
     16007     16005     16008     16010     16007     16005     16008     16011
     16008     16011     16014     16015     16008     16011     16014     16016
     16009     16008     16011     16012     16009     16008     16011     16013
     16009     16008     16011     16014     16010     16008     16011     16012
     16010     16008     16011     16013     16010     16008     16011     16014
     16011     16014     16016     16017     16011     16014     16016     16018
     16012     16011     16014     16015     16012     16011     16014     16016
     16013     16011     16014     16015     16013     16011     16014     16016
     16014     16016     16018     16019     16014     16016     16018     16020
     16014     16016     16018     16021     16015     16014     16016     16017
     16015     16014     16016     16018     16016     16018     16021     16022
     16016     16018     16021     16023     16017     16016     16018     16019
     16017     16016     16018     16020     16017     16016     16018     16021
     16018     16021     16023     16024     16018     16021     16023     16025
     16019     16018     16021     16022     16019     16018     16021     16023
     16020     16018     16021     16022     16020     16018     16021     16023
     16021     16023     16025     16026     16021     16023     16025     16027
     16021     16023     16025     16028     16022     16021     16023     16024
     16022     16021     16023     16025     16023     16025     16028     16029
     16023     16025     16028     16030     16023     16025     16028     16031
     16024     16023     16025     16026     16024     16023     16025     16027
     16024     16023     16025     16028     16025     16028     16031     16032
     16025     16028     16031     16033     16025     16028     16031     16034
     16026     16025     16028     16029     16026     16025     16028     16030
     16026     16025     16028     16031     16027     16025     16028     16029
     16027     16025     16028     16030     16027     16025     16028     16031
     16028     16031     16034     16035     16028     16031     16034     16036
     16028     16031     16034     16037     16029     16028     16031     16032
     16029     16028     16031     16033     16029     16028     16031     16034
     16030     16028     16031     16032     16030     16028     16031     16033
     16030     16028     16031     16034     16031     16034     16037     16038
     16031     16034     16037     16039     16031     16034     16037     16040
     16032     16031     16034     16035     16032     16031     16034     16036
     16032     16031     16034     16037     16033     16031     16034     16035
     16033     16031     16034     16036     16033     16031     16034     16037
     16035     16034     16037     16038     16035     16034     16037     16039
     16035     16034     16037     16040     16036     16034     16037     16038
     16036     16034     16037     16039     16036     16034     16037     16040
     16041     16044     16047     16048     16041     16044     16047     16049
     16041     16044     16047     16050     16042     16041     16044     16045
     16042     16041     16044     16046     16042     16041     16044     16047
     16043     16041     16044     16045     16043     16041     16044     16046
     16043     16041     16044     16047     16044     16047     16050     16051
     16044     16047     16050     16052     16044     16047     16050     16053
     16045     16044     16047     16048     16045     16044     16047     16049
     16045     16044     16047     16050     16046     16044     16047     16048
     16046     16044     16047     16049     16046     16044     16047     16050
     16047     16050     16053     16054     16047     16050     16053     16055
     16047     16050     16053     16056     16048     16047     16050     16051
     16048     16047     16050     16052     16048     16047     16050     16053
     16049     16047     16050     16051     16049     16047     16050     16052
     16049     16047     16050     16053     16050     16053     16056     16057
     16050     16053     16056     16058     16050     16053     16056     16059
     16051     16050     16053     16054     16051     16050     16053     16055
     16051     16050     16053     16056     16052     16050     16053     16054
     16052     16050     16053     16055     16052     16050     16053     16056
     16053     16056     16059     16060     16053     16056     16059     16061
     16053     16056     16059     16062     16054     16053     16056     16057
     16054     16053     16056     16058     16054     16053     16056     16059
     16055     16053     16056     16057     16055     16053     16056     16058
     16055     16053     16056     16059     16056     16059     16062     16063
     16056     16059     16062     16064     16056     16059     16062     16065
     16057     16056     16059     16060     16057     16056     16059     16061
     16057     16056     16059     16062     16058     16056     16059     16060
     16058     16056     16059     16061     16058     16056     16059     16062
     16059     16062     16065     16066     16059     16062     16065     16067
     16059     16062     16065     16068     16060     16059     16062     16063
     16060     16059     16062     16064     16060     16059     16062     16065
     16061     16059     16062     16063     16061     16059     16062     16064
     16061     16059     16062     16065     16062     16065     16068     16069
     16062     16065     16068     16070     16062     16065     16068     16071
     16063     16062     16065     16066     16063     16062     16065     16067
     16063     16062     16065     16068     16064     16062     16065     16066
     16064     16062     16065     16067     16064     16062     16065     16068
     16065     16068     16071     16072     16065     16068     16071     16073
     16065     16068     16071     16074     16066     16065     16068     16069
     16066     16065     16068     16070     16066     16065     16068     16071
     16067     16065     16068     16069     16067     16065     16068     16070
     16067     16065     16068     16071     16068     16071     16074     16075
     16068     16071     16074     16076     16068     16071     16074     16077
     16069     16068     16071     16072     16069     16068     16071     16073
     16069     16068     16071     16074     16070     16068     16071     16072
     16070     16068     16071     16073     16070     16068     16071     16074
     16071     16074     16077     16078     16071     16074     16077     16079
     16071     16074     16077     16080     16072     16071     16074     16075
     16072     16071     16074     16076     16072     16071     16074     16077
     16073     16071     16074     16075     16073     16071     16074     16076
     16073     16071     16074     16077     16074     16077     16080     16081
     16074     16077     16080     16082     16074     16077     16080     16083
     16075     16074     16077     16078     16075     16074     16077     16079
     16075     16074     16077     16080     16076     16074     16077     16078
     16076     16074     16077     16079     16076     16074     16077     16080
     16077     16080     16083     16084     16077     16080     16083     16085
     16077     16080     16083     16086     16078     16077     16080     16081
     16078     16077     16080     16082     16078     16077     16080     16083
     16079     16077     16080     16081     16079     16077     16080     16082
     16079     16077     16080     16083     16080     16083     16086     16087
     16080     16083     16086     16088     16080     16083     16086     16089
     16081     16080     16083     16084     16081     16080     16083     16085
     16081     16080     16083     16086     16082     16080     16083     16084
     16082     16080     16083     16085     16082     16080     16083     16086
     16084     16083     16086     16087     16084     16083     16086     16088
     16084     16083     16086     16089     16085     16083     16086     16087
     16085     16083     16086     16088     16085     16083     16086     16089
     16090     16103     16106     16107     16090     16103     16106     16108
     16090     16103     16106     16112     16091     16090     16095     16096
     16091     16090     16095     16097     16091     16090     16095     16098
     16091     16090     16099     16100     16091     16090     16099     16101
     16091     16090     16099     16102     16091     16090     16103     16104
     16091     16090     16103     16105     16091     16090     16103     16106
     16092     16091     16090     16095     16092     16091     16090     16099
     16092     16091     16090     16103     16093     16091     16090     16095
     16093     16091     16090     16099     16093     16091     16090     16103
     16094     16091     16090     16095     16094     16091     16090     16099
     16094     16091     16090     16103     16095     16090     16099     16100
     16095     16090     16099     16101     16095     16090     16099     16102
     16095     16090     16103     16104     16095     16090     16103     16105
     16095     16090     16103     16106     16096     16095     16090     16099
     16096     16095     16090     16103     16097     16095     16090     16099
     16097     16095     16090     16103     16098     16095     16090     16099
     16098     16095     16090     16103     16099     16090     16103     16104
     16099     16090     16103     16105     16099     16090     16103     16106
     16100     16099     16090     16103     16101     16099     16090     16103
     16102     16099     16090     16103     16103     16106     16112     16109
     16104     16103     16106     16107     16104     16103     16106     16108
     16104     16103     16106     16112     16105     16103     16106     16107
     16105     16103     16106     16108     16105     16103     16106     16112
     16106     16112     16109     16110     16106     16112     16109     16111
     16106     16112     16109     16113     16107     16106     16112     16109
     16108     16106     16112     16109     16109     16113     16114     16115
     16109     16113     16114     16116     16109     16113     16114     16117
     16110     16109     16113     16114     16111     16109     16113     16114
     16112     16109     16113     16114     16113     16114     16117     16118
     16113     16114     16117     16119     16113     16114     16117     16125
     16114     16117     16119     16120     16114     16117     16125     16126
     16114     16117     16125     16127     16114     16117     16125     16128
     16115     16114     16117     16118     16115     16114     16117     16119
     16115     16114     16117     16125     16116     16114     16117     16118
     16116     16114     16117     16119     16116     16114     16117     16125
     16117     16119     16120     16121     16117     16119     16120     16122
     16117     16125     16128     16129     16118     16117     16119     16120
     16118     16117     16125     16126     16118     16117     16125     16127
     16118     16117     16125     16128     16119     16117     16125     16126
     16119     16117     16125     16127     16119     16117     16125     16128
     16119     16120     16122     16123     16119     16120     16122     16124
     16119     16120     16122     16134     16120     16119     16117     16125
     16120     16122     16134     16135     16120     16122     16134     16136
     16120     16122     16134     16137     16121     16120     16122     16123
     16121     16120     16122     16124     16121     16120     16122     16134
     16122     16134     16137     16138     16122     16134     16137     16139
     16122     16134     16137     16140     16123     16122     16134     16135
     16123     16122     16134     16136     16123     16122     16134     16137
     16124     16122     16134     16135     16124     16122     16134     16136
     16124     16122     16134     16137     16125     16128     16129     16130
     16125     16128     16129     16131     16126     16125     16128     16129
     16127     16125     16128     16129     16128     16129     16131     16132
     16128     16129     16131     16133     16128     16129     16131     16179
     16129     16131     16179     16180     16129     16131     16179     16181
     16129     16131     16179     16182     16130     16129     16131     16132
     16130     16129     16131     16133     16130     16129     16131     16179
     16131     16179     16182     16183     16131     16179     16182     16184
     16131     16179     16182     16185     16132     16131     16179     16180
     16132     16131     16179     16181     16132     16131     16179     16182
     16133     16131     16179     16180     16133     16131     16179     16181
     16133     16131     16179     16182     16134     16137     16140     16141
     16134     16137     16140     16142     16134     16137     16140     16143
     16135     16134     16137     16138     16135     16134     16137     16139
     16135     16134     16137     16140     16136     16134     16137     16138
     16136     16134     16137     16139     16136     16134     16137     16140
     16137     16140     16143     16144     16137     16140     16143     16145
     16137     16140     16143     16146     16138     16137     16140     16141
     16138     16137     16140     16142     16138     16137     16140     16143
     16139     16137     16140     16141     16139     16137     16140     16142
     16139     16137     16140     16143     16140     16143     16146     16147
     16140     16143     16146     16148     16140     16143     16146     16149
     16141     16140     16143     16144     16141     16140     16143     16145
     16141     16140     16143     16146     16142     16140     16143     16144
     16142     16140     16143     16145     16142     16140     16143     16146
     16143     16146     16149     16150     16143     16146     16149     16151
     16143     16146     16149     16152     16144     16143     16146     16147
     16144     16143     16146     16148     16144     16143     16146     16149
     16145     16143     16146     16147     16145     16143     16146     16148
     16145     16143     16146     16149     16146     16149     16152     16153
     16146     16149     16152     16154     16147     16146     16149     16150
     16147     16146     16149     16151     16147     16146     16149     16152
     16148     16146     16149     16150     16148     16146     16149     16151
     16148     16146     16149     16152     16149     16152     16154     16155
     16149     16152     16154     16156     16150     16149     16152     16153
     16150     16149     16152     16154     16151     16149     16152     16153
     16151     16149     16152     16154     16152     16154     16156     16157
     16152     16154     16156     16158     16152     16154     16156     16159
     16153     16152     16154     16155     16153     16152     16154     16156
     16154     16156     16159     16160     16154     16156     16159     16161
     16155     16154     16156     16157     16155     16154     16156     16158
     16155     16154     16156     16159     16156     16159     16161     16162
     16156     16159     16161     16163     16157     16156     16159     16160
     16157     16156     16159     16161     16158     16156     16159     16160
     16158     16156     16159     16161     16159     16161     16163     16164
     16159     16161     16163     16165     16159     16161     16163     16166
     16160     16159     16161     16162     16160     16159     16161     16163
     16161     16163     16166     16167     16161     16163     16166     16168
     16161     16163     16166     16169     16162     16161     16163     16164
     16162     16161     16163     16165     16162     16161     16163     16166
     16163     16166     16169     16170     16163     16166     16169     16171
     16163     16166     16169     16172     16164     16163     16166     16167
     16164     16163     16166     16168     16164     16163     16166     16169
     16165     16163     16166     16167     16165     16163     16166     16168
     16165     16163     16166     16169     16166     16169     16172     16173
     16166     16169     16172     16174     16166     16169     16172     16175
     16167     16166     16169     16170     16167     16166     16169     16171
     16167     16166     16169     16172     16168     16166     16169     16170
     16168     16166     16169     16171     16168     16166     16169     16172
     16169     16172     16175     16176     16169     16172     16175     16177
     16169     16172     16175     16178     16170     16169     16172     16173
     16170     16169     16172     16174     16170     16169     16172     16175
     16171     16169     16172     16173     16171     16169     16172     16174
     16171     16169     16172     16175     16173     16172     16175     16176
     16173     16172     16175     16177     16173     16172     16175     16178
     16174     16172     16175     16176     16174     16172     16175     16177
     16174     16172     16175     16178     16179     16182     16185     16186
     16179     16182     16185     16187     16179     16182     16185     16188
     16180     16179     16182     16183     16180     16179     16182     16184
     16180     16179     16182     16185     16181     16179     16182     16183
     16181     16179     16182     16184     16181     16179     16182     16185
     16182     16185     16188     16189     16182     16185     16188     16190
     16182     16185     16188     16191     16183     16182     16185     16186
     16183     16182     16185     16187     16183     16182     16185     16188
     16184     16182     16185     16186     16184     16182     16185     16187
     16184     16182     16185     16188     16185     16188     16191     16192
     16185     16188     16191     16193     16185     16188     16191     16194
     16186     16185     16188     16189     16186     16185     16188     16190
     16186     16185     16188     16191     16187     16185     16188     16189
     16187     16185     16188     16190     16187     16185     16188     16191
     16188     16191     16194     16195     16188     16191     16194     16196
     16188     16191     16194     16197     16189     16188     16191     16192
     16189     16188     16191     16193     16189     16188     16191     16194
     16190     16188     16191     16192     16190     16188     16191     16193
     16190     16188     16191     16194     16191     16194     16197     16198
     16191     16194     16197     16199     16191     16194     16197     16200
     16192     16191     16194     16195     16192     16191     16194     16196
     16192     16191     16194     16197     16193     16191     16194     16195
     16193     16191     16194     16196     16193     16191     16194     16197
     16194     16197     16200     16201     16194     16197     16200     16202
     16194     16197     16200     16203     16195     16194     16197     16198
     16195     16194     16197     16199     16195     16194     16197     16200
     16196     16194     16197     16198     16196     16194     16197     16199
     16196     16194     16197     16200     16197     16200     16203     16204
     16197     16200     16203     16205     16197     16200     16203     16206
     16198     16197     16200     16201     16198     16197     16200     16202
     16198     16197     16200     16203     16199     16197     16200     16201
     16199     16197     16200     16202     16199     16197     16200     16203
     16200     16203     16206     16207     16200     16203     16206     16208
     16200     16203     16206     16209     16201     16200     16203     16204
     16201     16200     16203     16205     16201     16200     16203     16206
     16202     16200     16203     16204     16202     16200     16203     16205
     16202     16200     16203     16206     16203     16206     16209     16210
     16203     16206     16209     16211     16203     16206     16209     16212
     16204     16203     16206     16207     16204     16203     16206     16208
     16204     16203     16206     16209     16205     16203     16206     16207
     16205     16203     16206     16208     16205     16203     16206     16209
     16206     16209     16212     16213     16206     16209     16212     16214
     16206     16209     16212     16215     16207     16206     16209     16210
     16207     16206     16209     16211     16207     16206     16209     16212
     16208     16206     16209     16210     16208     16206     16209     16211
     16208     16206     16209     16212     16209     16212     16215     16216
     16209     16212     16215     16217     16209     16212     16215     16218
     16210     16209     16212     16213     16210     16209     16212     16214
     16210     16209     16212     16215     16211     16209     16212     16213
     16211     16209     16212     16214     16211     16209     16212     16215
     16212     16215     16218     16219     16212     16215     16218     16220
     16212     16215     16218     16221     16213     16212     16215     16216
     16213     16212     16215     16217     16213     16212     16215     16218
     16214     16212     16215     16216     16214     16212     16215     16217
     16214     16212     16215     16218     16215     16218     16221     16222
     16215     16218     16221     16223     16215     16218     16221     16224
     16216     16215     16218     16219     16216     16215     16218     16220
     16216     16215     16218     16221     16217     16215     16218     16219
     16217     16215     16218     16220     16217     16215     16218     16221
     16218     16221     16224     16225     16218     16221     16224     16226
     16218     16221     16224     16227     16219     16218     16221     16222
     16219     16218     16221     16223     16219     16218     16221     16224
     16220     16218     16221     16222     16220     16218     16221     16223
     16220     16218     16221     16224     16222     16221     16224     16225
     16222     16221     16224     16226     16222     16221     16224     16227
     16223     16221     16224     16225     16223     16221     16224     16226
     16223     16221     16224     16227     16228     16241     16244     16245
     16228     16241     16244     16246     16228     16241     16244     16251
     16229     16228     16233     16234     16229     16228     16233     16235
     16229     16228     16233     16236     16229     16228     16237     16238
     16229     16228     16237     16239     16229     16228     16237     16240
     16229     16228     16241     16242     16229     16228     16241     16243
     16229     16228     16241     16244     16230     16229     16228     16233
     16230     16229     16228     16237     16230     16229     16228     16241
     16231     16229     16228     16233     16231     16229     16228     16237
     16231     16229     16228     16241     16232     16229     16228     16233
     16232     16229     16228     16237     16232     16229     16228     16241
     16233     16228     16237     16238     16233     16228     16237     16239
     16233     16228     16237     16240     16233     16228     16241     16242
     16233     16228     16241     16243     16233     16228     16241     16244
     16234     16233     16228     16237     16234     16233     16228     16241
     16235     16233     16228     16237     16235     16233     16228     16241
     16236     16233     16228     16237     16236     16233     16228     16241
     16237     16228     16241     16242     16237     16228     16241     16243
     16237     16228     16241     16244     16238     16237     16228     16241
     16239     16237     16228     16241     16240     16237     16228     16241
     16241     16244     16251     16247     16242     16241     16244     16245
     16242     16241     16244     16246     16242     16241     16244     16251
     16243     16241     16244     16245     16243     16241     16244     16246
     16243     16241     16244     16251     16244     16251     16247     16248
     16244     16251     16247     16249     16244     16251     16247     16250
     16245     16244     16251     16247     16246     16244     16251     16247
     16247     16250     16252     16253     16247     16250     16252     16254
     16247     16250     16252     16257     16248     16247     16250     16252
     16249     16247     16250     16252     16250     16252     16257     16255
     16250     16252     16257     16258     16250     16252     16257     16259
     16251     16247     16250     16252     16252     16257     16255     16256
     16252     16257     16255     16307     16252     16257     16259     16260
     16252     16257     16259     16261     16252     16257     16259     16263
     16253     16252     16257     16255     16253     16252     16257     16258
     16253     16252     16257     16259     16254     16252     16257     16255
     16254     16252     16257     16258     16254     16252     16257     16259
     16255     16257     16259     16260     16255     16257     16259     16261
     16255     16257     16259     16263     16255     16307     16309     16310
     16255     16307     16309     16311     16255     16307     16309     16312
     16256     16255     16257     16258     16256     16255     16257     16259
     16256     16255     16307     16308     16256     16255     16307     16309
     16257     16255     16307     16308     16257     16255     16307     16309
     16257     16259     16261     16262     16257     16259     16263     16264
     16257     16259     16263     16265     16258     16257     16255     16307
     16258     16257     16259     16260     16258     16257     16259     16261
     16258     16257     16259     16263     16259     16257     16255     16307
     16259     16263     16265     16266     16259     16263     16265     16267
     16260     16259     16261     16262     16260     16259     16263     16264
     16260     16259     16263     16265     16261     16259     16263     16264
     16261     16259     16263     16265     16262     16261     16259     16263
     16263     16265     16267     16268     16263     16265     16267     16269
     16263     16265     16267     16270     16264     16263     16265     16266
     16264     16263     16265     16267     16265     16267     16270     16271
     16265     16267     16270     16272     16265     16267     16270     16273
     16266     16265     16267     16268     16266     16265     16267     16269
     16266     16265     16267     16270     16267     16270     16273     16274
     16267     16270     16273     16275     16267     16270     16273     16276
     16268     16267     16270     16271     16268     16267     16270     16272
     16268     16267     16270     16273     16269     16267     16270     16271
     16269     16267     16270     16272     16269     16267     16270     16273
     16270     16273     16276     16277     16270     16273     16276     16278
     16270     16273     16276     16279     16271     16270     16273     16274
     16271     16270     16273     16275     16271     16270     16273     16276
     16272     16270     16273     16274     16272     16270     16273     16275
     16272     16270     16273     16276     16273     16276     16279     16280
     16273     16276     16279     16281     16273     16276     16279     16282
     16274     16273     16276     16277     16274     16273     16276     16278
     16274     16273     16276     16279     16275     16273     16276     16277
     16275     16273     16276     16278     16275     16273     16276     16279
     16276     16279     16282     16283     16276     16279     16282     16284
     16276     16279     16282     16285     16277     16276     16279     16280
     16277     16276     16279     16281     16277     16276     16279     16282
     16278     16276     16279     16280     16278     16276     16279     16281
     16278     16276     16279     16282     16279     16282     16285     16286
     16279     16282     16285     16287     16279     16282     16285     16288
     16280     16279     16282     16283     16280     16279     16282     16284
     16280     16279     16282     16285     16281     16279     16282     16283
     16281     16279     16282     16284     16281     16279     16282     16285
     16282     16285     16288     16289     16282     16285     16288     16290
     16282     16285     16288     16291     16283     16282     16285     16286
     16283     16282     16285     16287     16283     16282     16285     16288
     16284     16282     16285     16286     16284     16282     16285     16287
     16284     16282     16285     16288     16285     16288     16291     16292
     16285     16288     16291     16293     16285     16288     16291     16294
     16286     16285     16288     16289     16286     16285     16288     16290
     16286     16285     16288     16291     16287     16285     16288     16289
     16287     16285     16288     16290     16287     16285     16288     16291
     16288     16291     16294     16295     16288     16291     16294     16296
     16288     16291     16294     16297     16289     16288     16291     16292
     16289     16288     16291     16293     16289     16288     16291     16294
     16290     16288     16291     16292     16290     16288     16291     16293
     16290     16288     16291     16294     16291     16294     16297     16298
     16291     16294     16297     16299     16291     16294     16297     16300
     16292     16291     16294     16295     16292     16291     16294     16296
     16292     16291     16294     16297     16293     16291     16294     16295
     16293     16291     16294     16296     16293     16291     16294     16297
     16294     16297     16300     16301     16294     16297     16300     16302
     16294     16297     16300     16303     16295     16294     16297     16298
     16295     16294     16297     16299     16295     16294     16297     16300
     16296     16294     16297     16298     16296     16294     16297     16299
     16296     16294     16297     16300     16297     16300     16303     16304
     16297     16300     16303     16305     16297     16300     16303     16306
     16298     16297     16300     16301     16298     16297     16300     16302
     16298     16297     16300     16303     16299     16297     16300     16301
     16299     16297     16300     16302     16299     16297     16300     16303
     16301     16300     16303     16304     16301     16300     16303     16305
     16301     16300     16303     16306     16302     16300     16303     16304
     16302     16300     16303     16305     16302     16300     16303     16306
     16307     16309     16312     16313     16307     16309     16312     16314
     16307     16309     16312     16315     16308     16307     16309     16310
     16308     16307     16309     16311     16308     16307     16309     16312
     16309     16312     16315     16316     16309     16312     16315     16317
     16309     16312     16315     16318     16310     16309     16312     16313
     16310     16309     16312     16314     16310     16309     16312     16315
     16311     16309     16312     16313     16311     16309     16312     16314
     16311     16309     16312     16315     16312     16315     16318     16319
     16312     16315     16318     16320     16312     16315     16318     16321
     16313     16312     16315     16316     16313     16312     16315     16317
     16313     16312     16315     16318     16314     16312     16315     16316
     16314     16312     16315     16317     16314     16312     16315     16318
     16315     16318     16321     16322     16315     16318     16321     16323
     16315     16318     16321     16324     16316     16315     16318     16319
     16316     16315     16318     16320     16316     16315     16318     16321
     16317     16315     16318     16319     16317     16315     16318     16320
     16317     16315     16318     16321     16318     16321     16324     16325
     16318     16321     16324     16326     16318     16321     16324     16327
     16319     16318     16321     16322     16319     16318     16321     16323
     16319     16318     16321     16324     16320     16318     16321     16322
     16320     16318     16321     16323     16320     16318     16321     16324
     16321     16324     16327     16328     16321     16324     16327     16329
     16321     16324     16327     16330     16322     16321     16324     16325
     16322     16321     16324     16326     16322     16321     16324     16327
     16323     16321     16324     16325     16323     16321     16324     16326
     16323     16321     16324     16327     16324     16327     16330     16331
     16324     16327     16330     16332     16325     16324     16327     16328
     16325     16324     16327     16329     16325     16324     16327     16330
     16326     16324     16327     16328     16326     16324     16327     16329
     16326     16324     16327     16330     16327     16330     16332     16333
     16327     16330     16332     16334     16328     16327     16330     16331
     16328     16327     16330     16332     16329     16327     16330     16331
     16329     16327     16330     16332     16330     16332     16334     16335
     16330     16332     16334     16336     16330     16332     16334     16337
     16331     16330     16332     16333     16331     16330     16332     16334
     16332     16334     16337     16338     16332     16334     16337     16339
     16332     16334     16337     16340     16333     16332     16334     16335
     16333     16332     16334     16336     16333     16332     16334     16337
     16334     16337     16340     16341     16334     16337     16340     16342
     16334     16337     16340     16343     16335     16334     16337     16338
     16335     16334     16337     16339     16335     16334     16337     16340
     16336     16334     16337     16338     16336     16334     16337     16339
     16336     16334     16337     16340     16337     16340     16343     16344
     16337     16340     16343     16345     16337     16340     16343     16346
     16338     16337     16340     16341     16338     16337     16340     16342
     16338     16337     16340     16343     16339     16337     16340     16341
     16339     16337     16340     16342     16339     16337     16340     16343
     16340     16343     16346     16347     16340     16343     16346     16348
     16340     16343     16346     16349     16341     16340     16343     16344
     16341     16340     16343     16345     16341     16340     16343     16346
     16342     16340     16343     16344     16342     16340     16343     16345
     16342     16340     16343     16346     16343     16346     16349     16350
     16343     16346     16349     16351     16343     16346     16349     16352
     16344     16343     16346     16347     16344     16343     16346     16348
     16344     16343     16346     16349     16345     16343     16346     16347
     16345     16343     16346     16348     16345     16343     16346     16349
     16346     16349     16352     16353     16346     16349     16352     16354
     16346     16349     16352     16355     16347     16346     16349     16350
     16347     16346     16349     16351     16347     16346     16349     16352
     16348     16346     16349     16350     16348     16346     16349     16351
     16348     16346     16349     16352     16349     16352     16355     16356
     16349     16352     16355     16357     16349     16352     16355     16358
     16350     16349     16352     16353     16350     16349     16352     16354
     16350     16349     16352     16355     16351     16349     16352     16353
     16351     16349     16352     16354     16351     16349     16352     16355
     16353     16352     16355     16356     16353     16352     16355     16357
     16353     16352     16355     16358     16354     16352     16355     16356
     16354     16352     16355     16357     16354     16352     16355     16358
     16359     16363     16365     16366     16359     16363     16365     16367
     16359     16363     16368     16369     16359     16363     16368     16370
     16359     16363     16368     16374     16360     16359     16363     16364
     16360     16359     16363     16365     16360     16359     16363     16368
     16361     16359     16363     16364     16361     16359     16363     16365
     16361     16359     16363     16368     16362     16359     16363     16364
     16362     16359     16363     16365     16362     16359     16363     16368
     16363     16368     16374     16371     16364     16363     16365     16366
     16364     16363     16365     16367     16364     16363     16368     16369
     16364     16363     16368     16370     16364     16363     16368     16374
     16365     16363     16368     16369     16365     16363     16368     16370
     16365     16363     16368     16374     16366     16365     16363     16368
     16367     16365     16363     16368     16368     16374     16371     16372
     16368     16374     16371     16373     16368     16374     16371     16375
     16369     16368     16374     16371     16370     16368     16374     16371
     16371     16375     16376     16377     16371     16375     16376     16378
     16371     16375     16376     16379     16372     16371     16375     16376
     16373     16371     16375     16376     16374     16371     16375     16376
     16375     16376     16379     16380     16375     16376     16379     16381
     16375     16376     16379     16387     16376     16379     16381     16382
     16376     16379     16387     16388     16376     16379     16387     16389
     16376     16379     16387     16390     16377     16376     16379     16380
     16377     16376     16379     16381     16377     16376     16379     16387
     16378     16376     16379     16380     16378     16376     16379     16381
     16378     16376     16379     16387     16379     16381     16382     16383
     16379     16381     16382     16384     16379     16387     16390     16391
     16380     16379     16381     16382     16380     16379     16387     16388
     16380     16379     16387     16389     16380     16379     16387     16390
     16381     16379     16387     16388     16381     16379     16387     16389
     16381     16379     16387     16390     16381     16382     16384     16385
     16381     16382     16384     16386     16381     16382     16384     16396
     16382     16381     16379     16387     16382     16384     16396     16397
     16382     16384     16396     16398     16382     16384     16396     16399
     16383     16382     16384     16385     16383     16382     16384     16386
     16383     16382     16384     16396     16384     16396     16399     16400
     16384     16396     16399     16401     16384     16396     16399     16402
     16385     16384     16396     16397     16385     16384     16396     16398
     16385     16384     16396     16399     16386     16384     16396     16397
     16386     16384     16396     16398     16386     16384     16396     16399
     16387     16390     16391     16392     16387     16390     16391     16393
     16388     16387     16390     16391     16389     16387     16390     16391
     16390     16391     16393     16394     16390     16391     16393     16395
     16390     16391     16393     16443     16391     16393     16443     16444
     16391     16393     16443     16445     16391     16393     16443     16446
     16392     16391     16393     16394     16392     16391     16393     16395
     16392     16391     16393     16443     16393     16443     16446     16447
     16393     16443     16446     16448     16393     16443     16446     16449
     16394     16393     16443     16444     16394     16393     16443     16445
     16394     16393     16443     16446     16395     16393     16443     16444
     16395     16393     16443     16445     16395     16393     16443     16446
     16396     16399     16402     16403     16396     16399     16402     16404
     16397     16396     16399     16400     16397     16396     16399     16401
     16397     16396     16399     16402     16398     16396     16399     16400
     16398     16396     16399     16401     16398     16396     16399     16402
     16399     16402     16404     16405     16399     16402     16404     16406
     16400     16399     16402     16403     16400     16399     16402     16404
     16401     16399     16402     16403     16401     16399     16402     16404
     16402     16404     16406     16407     16402     16404     16406     16408
     16402     16404     16406     16409     16403     16402     16404     16405
     16403     16402     16404     16406     16404     16406     16409     16410
     16404     16406     16409     16411     16405     16404     16406     16407
     16405     16404     16406     16408     16405     16404     16406     16409
     16406     16409     16411     16412     16406     16409     16411     16413
     16407     16406     16409     16410     16407     16406     16409     16411
     16408     16406     16409     16410     16408     16406     16409     16411
     16409     16411     16413     16414     16409     16411     16413     16415
     16409     16411     16413     16416     16410     16409     16411     16412
     16410     16409     16411     16413     16411     16413     16416     16417
     16411     16413     16416     16418     16412     16411     16413     16414
     16412     16411     16413     16415     16412     16411     16413     16416
     16413     16416     16418     16419     16413     16416     16418     16420
     16414     16413     16416     16417     16414     16413     16416     16418
     16415     16413     16416     16417     16415     16413     16416     16418
     16416     16418     16420     16421     16416     16418     16420     16422
     16416     16418     16420     16423     16417     16416     16418     16419
     16417     16416     16418     16420     16418     16420     16423     16424
     16418     16420     16423     16425     16419     16418     16420     16421
     16419     16418     16420     16422     16419     16418     16420     16423
     16420     16423     16425     16426     16420     16423     16425     16427
     16421     16420     16423     16424     16421     16420     16423     16425
     16422     16420     16423     16424     16422     16420     16423     16425
     16423     16425     16427     16428     16423     16425     16427     16429
     16423     16425     16427     16430     16424     16423     16425     16426
     16424     16423     16425     16427     16425     16427     16430     16431
     16425     16427     16430     16432     16425     16427     16430     16433
     16426     16425     16427     16428     16426     16425     16427     16429
     16426     16425     16427     16430     16427     16430     16433     16434
     16427     16430     16433     16435     16427     16430     16433     16436
     16428     16427     16430     16431     16428     16427     16430     16432
     16428     16427     16430     16433     16429     16427     16430     16431
     16429     16427     16430     16432     16429     16427     16430     16433
     16430     16433     16436     16437     16430     16433     16436     16438
     16430     16433     16436     16439     16431     16430     16433     16434
     16431     16430     16433     16435     16431     16430     16433     16436
     16432     16430     16433     16434     16432     16430     16433     16435
     16432     16430     16433     16436     16433     16436     16439     16440
     16433     16436     16439     16441     16433     16436     16439     16442
     16434     16433     16436     16437     16434     16433     16436     16438
     16434     16433     16436     16439     16435     16433     16436     16437
     16435     16433     16436     16438     16435     16433     16436     16439
     16437     16436     16439     16440     16437     16436     16439     16441
     16437     16436     16439     16442     16438     16436     16439     16440
     16438     16436     16439     16441     16438     16436     16439     16442
     16443     16446     16449     16450     16443     16446     16449     16451
     16443     16446     16449     16452     16444     16443     16446     16447
     16444     16443     16446     16448     16444     16443     16446     16449
     16445     16443     16446     16447     16445     16443     16446     16448
     16445     16443     16446     16449     16446     16449     16452     16453
     16446     16449     16452     16454     16446     16449     16452     16455
     16447     16446     16449     16450     16447     16446     16449     16451
     16447     16446     16449     16452     16448     16446     16449     16450
     16448     16446     16449     16451     16448     16446     16449     16452
     16449     16452     16455     16456     16449     16452     16455     16457
     16449     16452     16455     16458     16450     16449     16452     16453
     16450     16449     16452     16454     16450     16449     16452     16455
     16451     16449     16452     16453     16451     16449     16452     16454
     16451     16449     16452     16455     16452     16455     16458     16459
     16452     16455     16458     16460     16452     16455     16458     16461
     16453     16452     16455     16456     16453     16452     16455     16457
     16453     16452     16455     16458     16454     16452     16455     16456
     16454     16452     16455     16457     16454     16452     16455     16458
     16455     16458     16461     16462     16455     16458     16461     16463
     16455     16458     16461     16464     16456     16455     16458     16459
     16456     16455     16458     16460     16456     16455     16458     16461
     16457     16455     16458     16459     16457     16455     16458     16460
     16457     16455     16458     16461     16458     16461     16464     16465
     16458     16461     16464     16466     16458     16461     16464     16467
     16459     16458     16461     16462     16459     16458     16461     16463
     16459     16458     16461     16464     16460     16458     16461     16462
     16460     16458     16461     16463     16460     16458     16461     16464
     16461     16464     16467     16468     16461     16464     16467     16469
     16461     16464     16467     16470     16462     16461     16464     16465
     16462     16461     16464     16466     16462     16461     16464     16467
     16463     16461     16464     16465     16463     16461     16464     16466
     16463     16461     16464     16467     16464     16467     16470     16471
     16464     16467     16470     16472     16464     16467     16470     16473
     16465     16464     16467     16468     16465     16464     16467     16469
     16465     16464     16467     16470     16466     16464     16467     16468
     16466     16464     16467     16469     16466     16464     16467     16470
     16467     16470     16473     16474     16467     16470     16473     16475
     16467     16470     16473     16476     16468     16467     16470     16471
     16468     16467     16470     16472     16468     16467     16470     16473
     16469     16467     16470     16471     16469     16467     16470     16472
     16469     16467     16470     16473     16470     16473     16476     16477
     16470     16473     16476     16478     16470     16473     16476     16479
     16471     16470     16473     16474     16471     16470     16473     16475
     16471     16470     16473     16476     16472     16470     16473     16474
     16472     16470     16473     16475     16472     16470     16473     16476
     16473     16476     16479     16480     16473     16476     16479     16481
     16473     16476     16479     16482     16474     16473     16476     16477
     16474     16473     16476     16478     16474     16473     16476     16479
     16475     16473     16476     16477     16475     16473     16476     16478
     16475     16473     16476     16479     16476     16479     16482     16483
     16476     16479     16482     16484     16476     16479     16482     16485
     16477     16476     16479     16480     16477     16476     16479     16481
     16477     16476     16479     16482     16478     16476     16479     16480
     16478     16476     16479     16481     16478     16476     16479     16482
     16479     16482     16485     16486     16479     16482     16485     16487
     16479     16482     16485     16488     16480     16479     16482     16483
     16480     16479     16482     16484     16480     16479     16482     16485
     16481     16479     16482     16483     16481     16479     16482     16484
     16481     16479     16482     16485     16482     16485     16488     16489
     16482     16485     16488     16490     16482     16485     16488     16491
     16483     16482     16485     16486     16483     16482     16485     16487
     16483     16482     16485     16488     16484     16482     16485     16486
     16484     16482     16485     16487     16484     16482     16485     16488
     16486     16485     16488     16489     16486     16485     16488     16490
     16486     16485     16488     16491     16487     16485     16488     16489
     16487     16485     16488     16490     16487     16485     16488     16491
     16492     16505     16508     16509     16492     16505     16508     16510
     16492     16505     16508     16514     16493     16492     16497     16498
     16493     16492     16497     16499     16493     16492     16497     16500
     16493     16492     16501     16502     16493     16492     16501     16503
     16493     16492     16501     16504     16493     16492     16505     16506
     16493     16492     16505     16507     16493     16492     16505     16508
     16494     16493     16492     16497     16494     16493     16492     16501
     16494     16493     16492     16505     16495     16493     16492     16497
     16495     16493     16492     16501     16495     16493     16492     16505
     16496     16493     16492     16497     16496     16493     16492     16501
     16496     16493     16492     16505     16497     16492     16501     16502
     16497     16492     16501     16503     16497     16492     16501     16504
     16497     16492     16505     16506     16497     16492     16505     16507
     16497     16492     16505     16508     16498     16497     16492     16501
     16498     16497     16492     16505     16499     16497     16492     16501
     16499     16497     16492     16505     16500     16497     16492     16501
     16500     16497     16492     16505     16501     16492     16505     16506
     16501     16492     16505     16507     16501     16492     16505     16508
     16502     16501     16492     16505     16503     16501     16492     16505
     16504     16501     16492     16505     16505     16508     16514     16511
     16506     16505     16508     16509     16506     16505     16508     16510
     16506     16505     16508     16514     16507     16505     16508     16509
     16507     16505     16508     16510     16507     16505     16508     16514
     16508     16514     16511     16512     16508     16514     16511     16513
     16508     16514     16511     16515     16509     16508     16514     16511
     16510     16508     16514     16511     16511     16515     16516     16517
     16511     16515     16516     16518     16511     16515     16516     16519
     16512     16511     16515     16516     16513     16511     16515     16516
     16514     16511     16515     16516     16515     16516     16519     16520
     16515     16516     16519     16521     16515     16516     16519     16527
     16516     16519     16521     16522     16516     16519     16527     16528
     16516     16519     16527     16529     16516     16519     16527     16530
     16517     16516     16519     16520     16517     16516     16519     16521
     16517     16516     16519     16527     16518     16516     16519     16520
     16518     16516     16519     16521     16518     16516     16519     16527
     16519     16521     16522     16523     16519     16521     16522     16524
     16519     16527     16530     16531     16520     16519     16521     16522
     16520     16519     16527     16528     16520     16519     16527     16529
     16520     16519     16527     16530     16521     16519     16527     16528
     16521     16519     16527     16529     16521     16519     16527     16530
     16521     16522     16524     16525     16521     16522     16524     16526
     16521     16522     16524     16536     16522     16521     16519     16527
     16522     16524     16536     16537     16522     16524     16536     16538
     16522     16524     16536     16539     16523     16522     16524     16525
     16523     16522     16524     16526     16523     16522     16524     16536
     16524     16536     16539     16540     16524     16536     16539     16541
     16524     16536     16539     16542     16525     16524     16536     16537
     16525     16524     16536     16538     16525     16524     16536     16539
     16526     16524     16536     16537     16526     16524     16536     16538
     16526     16524     16536     16539     16527     16530     16531     16532
     16527     16530     16531     16533     16528     16527     16530     16531
     16529     16527     16530     16531     16530     16531     16533     16534
     16530     16531     16533     16535     16530     16531     16533     16581
     16531     16533     16581     16582     16531     16533     16581     16583
     16531     16533     16581     16584     16532     16531     16533     16534
     16532     16531     16533     16535     16532     16531     16533     16581
     16533     16581     16584     16585     16533     16581     16584     16586
     16533     16581     16584     16587     16534     16533     16581     16582
     16534     16533     16581     16583     16534     16533     16581     16584
     16535     16533     16581     16582     16535     16533     16581     16583
     16535     16533     16581     16584     16536     16539     16542     16543
     16536     16539     16542     16544     16536     16539     16542     16545
     16537     16536     16539     16540     16537     16536     16539     16541
     16537     16536     16539     16542     16538     16536     16539     16540
     16538     16536     16539     16541     16538     16536     16539     16542
     16539     16542     16545     16546     16539     16542     16545     16547
     16539     16542     16545     16548     16540     16539     16542     16543
     16540     16539     16542     16544     16540     16539     16542     16545
     16541     16539     16542     16543     16541     16539     16542     16544
     16541     16539     16542     16545     16542     16545     16548     16549
     16542     16545     16548     16550     16542     16545     16548     16551
     16543     16542     16545     16546     16543     16542     16545     16547
     16543     16542     16545     16548     16544     16542     16545     16546
     16544     16542     16545     16547     16544     16542     16545     16548
     16545     16548     16551     16552     16545     16548     16551     16553
     16545     16548     16551     16554     16546     16545     16548     16549
     16546     16545     16548     16550     16546     16545     16548     16551
     16547     16545     16548     16549     16547     16545     16548     16550
     16547     16545     16548     16551     16548     16551     16554     16555
     16548     16551     16554     16556     16549     16548     16551     16552
     16549     16548     16551     16553     16549     16548     16551     16554
     16550     16548     16551     16552     16550     16548     16551     16553
     16550     16548     16551     16554     16551     16554     16556     16557
     16551     16554     16556     16558     16552     16551     16554     16555
     16552     16551     16554     16556     16553     16551     16554     16555
     16553     16551     16554     16556     16554     16556     16558     16559
     16554     16556     16558     16560     16554     16556     16558     16561
     16555     16554     16556     16557     16555     16554     16556     16558
     16556     16558     16561     16562     16556     16558     16561     16563
     16557     16556     16558     16559     16557     16556     16558     16560
     16557     16556     16558     16561     16558     16561     16563     16564
     16558     16561     16563     16565     16559     16558     16561     16562
     16559     16558     16561     16563     16560     16558     16561     16562
     16560     16558     16561     16563     16561     16563     16565     16566
     16561     16563     16565     16567     16561     16563     16565     16568
     16562     16561     16563     16564     16562     16561     16563     16565
     16563     16565     16568     16569     16563     16565     16568     16570
     16563     16565     16568     16571     16564     16563     16565     16566
     16564     16563     16565     16567     16564     16563     16565     16568
     16565     16568     16571     16572     16565     16568     16571     16573
     16565     16568     16571     16574     16566     16565     16568     16569
     16566     16565     16568     16570     16566     16565     16568     16571
     16567     16565     16568     16569     16567     16565     16568     16570
     16567     16565     16568     16571     16568     16571     16574     16575
     16568     16571     16574     16576     16568     16571     16574     16577
     16569     16568     16571     16572     16569     16568     16571     16573
     16569     16568     16571     16574     16570     16568     16571     16572
     16570     16568     16571     16573     16570     16568     16571     16574
     16571     16574     16577     16578     16571     16574     16577     16579
     16571     16574     16577     16580     16572     16571     16574     16575
     16572     16571     16574     16576     16572     16571     16574     16577
     16573     16571     16574     16575     16573     16571     16574     16576
     16573     16571     16574     16577     16575     16574     16577     16578
     16575     16574     16577     16579     16575     16574     16577     16580
     16576     16574     16577     16578     16576     16574     16577     16579
     16576     16574     16577     16580     16581     16584     16587     16588
     16581     16584     16587     16589     16581     16584     16587     16590
     16582     16581     16584     16585     16582     16581     16584     16586
     16582     16581     16584     16587     16583     16581     16584     16585
     16583     16581     16584     16586     16583     16581     16584     16587
     16584     16587     16590     16591     16584     16587     16590     16592
     16584     16587     16590     16593     16585     16584     16587     16588
     16585     16584     16587     16589     16585     16584     16587     16590
     16586     16584     16587     16588     16586     16584     16587     16589
     16586     16584     16587     16590     16587     16590     16593     16594
     16587     16590     16593     16595     16587     16590     16593     16596
     16588     16587     16590     16591     16588     16587     16590     16592
     16588     16587     16590     16593     16589     16587     16590     16591
     16589     16587     16590     16592     16589     16587     16590     16593
     16590     16593     16596     16597     16590     16593     16596     16598
     16590     16593     16596     16599     16591     16590     16593     16594
     16591     16590     16593     16595     16591     16590     16593     16596
     16592     16590     16593     16594     16592     16590     16593     16595
     16592     16590     16593     16596     16593     16596     16599     16600
     16593     16596     16599     16601     16593     16596     16599     16602
     16594     16593     16596     16597     16594     16593     16596     16598
     16594     16593     16596     16599     16595     16593     16596     16597
     16595     16593     16596     16598     16595     16593     16596     16599
     16596     16599     16602     16603     16596     16599     16602     16604
     16596     16599     16602     16605     16597     16596     16599     16600
     16597     16596     16599     16601     16597     16596     16599     16602
     16598     16596     16599     16600     16598     16596     16599     16601
     16598     16596     16599     16602     16599     16602     16605     16606
     16599     16602     16605     16607     16599     16602     16605     16608
     16600     16599     16602     16603     16600     16599     16602     16604
     16600     16599     16602     16605     16601     16599     16602     16603
     16601     16599     16602     16604     16601     16599     16602     16605
     16602     16605     16608     16609     16602     16605     16608     16610
     16602     16605     16608     16611     16603     16602     16605     16606
     16603     16602     16605     16607     16603     16602     16605     16608
     16604     16602     16605     16606     16604     16602     16605     16607
     16604     16602     16605     16608     16605     16608     16611     16612
     16605     16608     16611     16613     16605     16608     16611     16614
     16606     16605     16608     16609     16606     16605     16608     16610
     16606     16605     16608     16611     16607     16605     16608     16609
     16607     16605     16608     16610     16607     16605     16608     16611
     16608     16611     16614     16615     16608     16611     16614     16616
     16608     16611     16614     16617     16609     16608     16611     16612
     16609     16608     16611     16613     16609     16608     16611     16614
     16610     16608     16611     16612     16610     16608     16611     16613
     16610     16608     16611     16614     16611     16614     16617     16618
     16611     16614     16617     16619     16611     16614     16617     16620
     16612     16611     16614     16615     16612     16611     16614     16616
     16612     16611     16614     16617     16613     16611     16614     16615
     16613     16611     16614     16616     16613     16611     16614     16617
     16614     16617     16620     16621     16614     16617     16620     16622
     16614     16617     16620     16623     16615     16614     16617     16618
     16615     16614     16617     16619     16615     16614     16617     16620
     16616     16614     16617     16618     16616     16614     16617     16619
     16616     16614     16617     16620     16617     16620     16623     16624
     16617     16620     16623     16625     16617     16620     16623     16626
     16618     16617     16620     16621     16618     16617     16620     16622
     16618     16617     16620     16623     16619     16617     16620     16621
     16619     16617     16620     16622     16619     16617     16620     16623
     16620     16623     16626     16627     16620     16623     16626     16628
     16620     16623     16626     16629     16621     16620     16623     16624
     16621     16620     16623     16625     16621     16620     16623     16626
     16622     16620     16623     16624     16622     16620     16623     16625
     16622     16620     16623     16626     16624     16623     16626     16627
     16624     16623     16626     16628     16624     16623     16626     16629
     16625     16623     16626     16627     16625     16623     16626     16628
     16625     16623     16626     16629     16630     16634     16636     16637
     16630     16634     16636     16638     16630     16634     16639     16640
     16630     16634     16639     16641     16630     16634     16639     16645
     16631     16630     16634     16635     16631     16630     16634     16636
     16631     16630     16634     16639     16632     16630     16634     16635
     16632     16630     16634     16636     16632     16630     16634     16639
     16633     16630     16634     16635     16633     16630     16634     16636
     16633     16630     16634     16639     16634     16639     16645     16642
     16635     16634     16636     16637     16635     16634     16636     16638
     16635     16634     16639     16640     16635     16634     16639     16641
     16635     16634     16639     16645     16636     16634     16639     16640
     16636     16634     16639     16641     16636     16634     16639     16645
     16637     16636     16634     16639     16638     16636     16634     16639
     16639     16645     16642     16643     16639     16645     16642     16644
     16639     16645     16642     16646     16640     16639     16645     16642
     16641     16639     16645     16642     16642     16646     16647     16648
     16642     16646     16647     16649     16642     16646     16647     16650
     16643     16642     16646     16647     16644     16642     16646     16647
     16645     16642     16646     16647     16646     16647     16650     16651
     16646     16647     16650     16652     16646     16647     16650     16658
     16647     16650     16652     16653     16647     16650     16658     16659
     16647     16650     16658     16660     16647     16650     16658     16661
     16648     16647     16650     16651     16648     16647     16650     16652
     16648     16647     16650     16658     16649     16647     16650     16651
     16649     16647     16650     16652     16649     16647     16650     16658
     16650     16652     16653     16654     16650     16652     16653     16655
     16650     16658     16661     16662     16651     16650     16652     16653
     16651     16650     16658     16659     16651     16650     16658     16660
     16651     16650     16658     16661     16652     16650     16658     16659
     16652     16650     16658     16660     16652     16650     16658     16661
     16652     16653     16655     16656     16652     16653     16655     16657
     16652     16653     16655     16667     16653     16652     16650     16658
     16653     16655     16667     16668     16653     16655     16667     16669
     16653     16655     16667     16670     16654     16653     16655     16656
     16654     16653     16655     16657     16654     16653     16655     16667
     16655     16667     16670     16671     16655     16667     16670     16672
     16655     16667     16670     16673     16656     16655     16667     16668
     16656     16655     16667     16669     16656     16655     16667     16670
     16657     16655     16667     16668     16657     16655     16667     16669
     16657     16655     16667     16670     16658     16661     16662     16663
     16658     16661     16662     16664     16659     16658     16661     16662
     16660     16658     16661     16662     16661     16662     16664     16665
     16661     16662     16664     16666     16661     16662     16664     16714
     16662     16664     16714     16715     16662     16664     16714     16716
     16662     16664     16714     16717     16663     16662     16664     16665
     16663     16662     16664     16666     16663     16662     16664     16714
     16664     16714     16717     16718     16664     16714     16717     16719
     16664     16714     16717     16720     16665     16664     16714     16715
     16665     16664     16714     16716     16665     16664     16714     16717
     16666     16664     16714     16715     16666     16664     16714     16716
     16666     16664     16714     16717     16667     16670     16673     16674
     16667     16670     16673     16675     16668     16667     16670     16671
     16668     16667     16670     16672     16668     16667     16670     16673
     16669     16667     16670     16671     16669     16667     16670     16672
     16669     16667     16670     16673     16670     16673     16675     16676
     16670     16673     16675     16677     16671     16670     16673     16674
     16671     16670     16673     16675     16672     16670     16673     16674
     16672     16670     16673     16675     16673     16675     16677     16678
     16673     16675     16677     16679     16673     16675     16677     16680
     16674     16673     16675     16676     16674     16673     16675     16677
     16675     16677     16680     16681     16675     16677     16680     16682
     16676     16675     16677     16678     16676     16675     16677     16679
     16676     16675     16677     16680     16677     16680     16682     16683
     16677     16680     16682     16684     16678     16677     16680     16681
     16678     16677     16680     16682     16679     16677     16680     16681
     16679     16677     16680     16682     16680     16682     16684     16685
     16680     16682     16684     16686     16680     16682     16684     16687
     16681     16680     16682     16683     16681     16680     16682     16684
     16682     16684     16687     16688     16682     16684     16687     16689
     16683     16682     16684     16685     16683     16682     16684     16686
     16683     16682     16684     16687     16684     16687     16689     16690
     16684     16687     16689     16691     16685     16684     16687     16688
     16685     16684     16687     16689     16686     16684     16687     16688
     16686     16684     16687     16689     16687     16689     16691     16692
     16687     16689     16691     16693     16687     16689     16691     16694
     16688     16687     16689     16690     16688     16687     16689     16691
     16689     16691     16694     16695     16689     16691     16694     16696
     16690     16689     16691     16692     16690     16689     16691     16693
     16690     16689     16691     16694     16691     16694     16696     16697
     16691     16694     16696     16698     16692     16691     16694     16695
     16692     16691     16694     16696     16693     16691     16694     16695
     16693     16691     16694     16696     16694     16696     16698     16699
     16694     16696     16698     16700     16694     16696     16698     16701
     16695     16694     16696     16697     16695     16694     16696     16698
     16696     16698     16701     16702     16696     16698     16701     16703
     16696     16698     16701     16704     16697     16696     16698     16699
     16697     16696     16698     16700     16697     16696     16698     16701
     16698     16701     16704     16705     16698     16701     16704     16706
     16698     16701     16704     16707     16699     16698     16701     16702
     16699     16698     16701     16703     16699     16698     16701     16704
     16700     16698     16701     16702     16700     16698     16701     16703
     16700     16698     16701     16704     16701     16704     16707     16708
     16701     16704     16707     16709     16701     16704     16707     16710
     16702     16701     16704     16705     16702     16701     16704     16706
     16702     16701     16704     16707     16703     16701     16704     16705
     16703     16701     16704     16706     16703     16701     16704     16707
     16704     16707     16710     16711     16704     16707     16710     16712
     16704     16707     16710     16713     16705     16704     16707     16708
     16705     16704     16707     16709     16705     16704     16707     16710
     16706     16704     16707     16708     16706     16704     16707     16709
     16706     16704     16707     16710     16708     16707     16710     16711
     16708     16707     16710     16712     16708     16707     16710     16713
     16709     16707     16710     16711     16709     16707     16710     16712
     16709     16707     16710     16713     16714     16717     16720     16721
     16714     16717     16720     16722     16714     16717     16720     16723
     16715     16714     16717     16718     16715     16714     16717     16719
     16715     16714     16717     16720     16716     16714     16717     16718
     16716     16714     16717     16719     16716     16714     16717     16720
     16717     16720     16723     16724     16717     16720     16723     16725
     16717     16720     16723     16726     16718     16717     16720     16721
     16718     16717     16720     16722     16718     16717     16720     16723
     16719     16717     16720     16721     16719     16717     16720     16722
     16719     16717     16720     16723     16720     16723     16726     16727
     16720     16723     16726     16728     16720     16723     16726     16729
     16721     16720     16723     16724     16721     16720     16723     16725
     16721     16720     16723     16726     16722     16720     16723     16724
     16722     16720     16723     16725     16722     16720     16723     16726
     16723     16726     16729     16730     16723     16726     16729     16731
     16723     16726     16729     16732     16724     16723     16726     16727
     16724     16723     16726     16728     16724     16723     16726     16729
     16725     16723     16726     16727     16725     16723     16726     16728
     16725     16723     16726     16729     16726     16729     16732     16733
     16726     16729     16732     16734     16726     16729     16732     16735
     16727     16726     16729     16730     16727     16726     16729     16731
     16727     16726     16729     16732     16728     16726     16729     16730
     16728     16726     16729     16731     16728     16726     16729     16732
     16729     16732     16735     16736     16729     16732     16735     16737
     16729     16732     16735     16738     16730     16729     16732     16733
     16730     16729     16732     16734     16730     16729     16732     16735
     16731     16729     16732     16733     16731     16729     16732     16734
     16731     16729     16732     16735     16732     16735     16738     16739
     16732     16735     16738     16740     16732     16735     16738     16741
     16733     16732     16735     16736     16733     16732     16735     16737
     16733     16732     16735     16738     16734     16732     16735     16736
     16734     16732     16735     16737     16734     16732     16735     16738
     16735     16738     16741     16742     16735     16738     16741     16743
     16735     16738     16741     16744     16736     16735     16738     16739
     16736     16735     16738     16740     16736     16735     16738     16741
     16737     16735     16738     16739     16737     16735     16738     16740
     16737     16735     16738     16741     16738     16741     16744     16745
     16738     16741     16744     16746     16738     16741     16744     16747
     16739     16738     16741     16742     16739     16738     16741     16743
     16739     16738     16741     16744     16740     16738     16741     16742
     16740     16738     16741     16743     16740     16738     16741     16744
     16741     16744     16747     16748     16741     16744     16747     16749
     16741     16744     16747     16750     16742     16741     16744     16745
     16742     16741     16744     16746     16742     16741     16744     16747
     16743     16741     16744     16745     16743     16741     16744     16746
     16743     16741     16744     16747     16744     16747     16750     16751
     16744     16747     16750     16752     16744     16747     16750     16753
     16745     16744     16747     16748     16745     16744     16747     16749
     16745     16744     16747     16750     16746     16744     16747     16748
     16746     16744     16747     16749     16746     16744     16747     16750
     16747     16750     16753     16754     16747     16750     16753     16755
     16747     16750     16753     16756     16748     16747     16750     16751
     16748     16747     16750     16752     16748     16747     16750     16753
     16749     16747     16750     16751     16749     16747     16750     16752
     16749     16747     16750     16753     16750     16753     16756     16757
     16750     16753     16756     16758     16750     16753     16756     16759
     16751     16750     16753     16754     16751     16750     16753     16755
     16751     16750     16753     16756     16752     16750     16753     16754
     16752     16750     16753     16755     16752     16750     16753     16756
     16753     16756     16759     16760     16753     16756     16759     16761
     16753     16756     16759     16762     16754     16753     16756     16757
     16754     16753     16756     16758     16754     16753     16756     16759
     16755     16753     16756     16757     16755     16753     16756     16758
     16755     16753     16756     16759     16757     16756     16759     16760
     16757     16756     16759     16761     16757     16756     16759     16762
     16758     16756     16759     16760     16758     16756     16759     16761
     16758     16756     16759     16762     16763     16767     16770     16771
     16763     16767     16770     16801     16763     16809     16806     16801
     16763     16809     16806     16807     16763     16809     16806     16808
     16764     16763     16765     16766     16764     16763     16767     16768
     16764     16763     16767     16769     16764     16763     16767     16770
     16764     16763     16809     16806     16764     16763     16809     16810
     16764     16763     16809     16811     16765     16763     16767     16768
     16765     16763     16767     16769     16765     16763     16767     16770
     16765     16763     16809     16806     16765     16763     16809     16810
     16765     16763     16809     16811     16766     16765     16763     16767
     16766     16765     16763     16809     16767     16763     16809     16806
     16767     16763     16809     16810     16767     16763     16809     16811
     16767     16770     16771     16772     16767     16770     16771     16773
     16767     16770     16801     16799     16767     16770     16801     16802
     16767     16770     16801     16806     16768     16767     16763     16809
     16768     16767     16770     16771     16768     16767     16770     16801
     16769     16767     16763     16809     16769     16767     16770     16771
     16769     16767     16770     16801     16770     16767     16763     16809
     16770     16771     16773     16774     16770     16771     16773     16775
     16770     16771     16773     16776     16770     16801     16799     16776
     16770     16801     16799     16796     16770     16801     16799     16800
     16770     16801     16802     16803     16770     16801     16802     16804
     16770     16801     16802     16805     16770     16801     16806     16807
     16770     16801     16806     16808     16770     16801     16806     16809
     16771     16770     16801     16799     16771     16770     16801     16802
     16771     16770     16801     16806     16771     16773     16776     16777
     16771     16773     16776     16778     16771     16773     16776     16799
     16772     16771     16770     16801     16772     16771     16773     16774
     16772     16771     16773     16775     16772     16771     16773     16776
     16773     16771     16770     16801     16773     16776     16778     16779
     16773     16776     16778     16780     16773     16776     16778     16788
     16773     16776     16799     16796     16773     16776     16799     16800
     16773     16776     16799     16801     16774     16773     16776     16777
     16774     16773     16776     16778     16774     16773     16776     16799
     16775     16773     16776     16777     16775     16773     16776     16778
     16775     16773     16776     16799     16776     16778     16780     16781
     16776     16778     16780     16782     16776     16778     16780     16783
     16776     16778     16788     16786     16776     16778     16788     16789
     16776     16778     16788     16793     16776     16799     16796     16793
     16776     16799     16796     16797     16776     16799     16796     16798
     16776     16799     16801     16802     16776     16799     16801     16806
     16777     16776     16778     16779     16777     16776     16778     16780
     16777     16776     16778     16788     16777     16776     16799     16796
     16777     16776     16799     16800     16777     16776     16799     16801
     16778     16776     16799     16796     16778     16776     16799     16800
     16778     16776     16799     16801     16778     16780     16783     16784
     16778     16780     16783     16785     16778     16780     16783     16786
     16778     16788     16786     16783     16778     16788     16786     16787
     16778     16788     16786     16812     16778     16788     16789     16790
     16778     16788     16789     16791     16778     16788     16789     16792
     16778     16788     16793     16794     16778     16788     16793     16795
     16778     16788     16793     16796     16779     16778     16776     16799
     16779     16778     16780     16781     16779     16778     16780     16782
     16779     16778     16780     16783     16779     16778     16788     16786
     16779     16778     16788     16789     16779     16778     16788     16793
     16780     16778     16776     16799     16780     16778     16788     16786
     16780     16778     16788     16789     16780     16778     16788     16793
     16780     16783     16786     16787     16780     16783     16786     16788
     16780     16783     16786     16812     16781     16780     16778     16788
     16781     16780     16783     16784     16781     16780     16783     16785
     16781     16780     16783     16786     16782     16780     16778     16788
     16782     16780     16783     16784     16782     16780     16783     16785
     16782     16780     16783     16786     16783     16780     16778     16788
     16783     16786     16788     16789     16783     16786     16788     16793
     16783     16786     16812     16813     16783     16786     16812     16814
     16783     16786     16812     16818     16784     16783     16786     16787
     16784     16783     16786     16788     16784     16783     16786     16812
     16785     16783     16786     16787     16785     16783     16786     16788
     16785     16783     16786     16812     16786     16788     16789     16790
     16786     16788     16789     16791     16786     16788     16789     16792
     16786     16788     16793     16794     16786     16788     16793     16795
     16786     16788     16793     16796     16786     16812     16814     16815
     16786     16812     16814     16816     16786     16812     16814     16817
     16786     16812     16818     16819     16786     16812     16818     16820
     16786     16812     16818     16821     16787     16786     16788     16789
     16787     16786     16788     16793     16787     16786     16812     16813
     16787     16786     16812     16814     16787     16786     16812     16818
     16788     16778     16776     16799     16788     16786     16812     16813
     16788     16786     16812     16814     16788     16786     16812     16818
     16788     16793     16796     16797     16788     16793     16796     16798
     16788     16793     16796     16799     16789     16788     16786     16812
     16789     16788     16793     16794     16789     16788     16793     16795
     16789     16788     16793     16796     16790     16789     16788     16793
     16791     16789     16788     16793     16792     16789     16788     16793
     16793     16788     16786     16812     16793     16796     16799     16800
     16793     16796     16799     16801     16794     16793     16796     16797
     16794     16793     16796     16798     16794     16793     16796     16799
     16795     16793     16796     16797     16795     16793     16796     16798
     16795     16793     16796     16799     16796     16799     16801     16802
     16796     16799     16801     16806     16797     16796     16799     16800
     16797     16796     16799     16801     16798     16796     16799     16800
     16798     16796     16799     16801     16799     16801     16802     16803
     16799     16801     16802     16804     16799     16801     16802     16805
     16799     16801     16806     16807     16799     16801     16806     16808
     16799     16801     16806     16809     16800     16799     16801     16802
     16800     16799     16801     16806     16801     16806     16809     16810
     16801     16806     16809     16811     16802     16801     16806     16807
     16802     16801     16806     16808     16802     16801     16806     16809
     16803     16802     16801     16806     16804     16802     16801     16806
     16805     16802     16801     16806     16807     16806     16809     16810
     16807     16806     16809     16811     16808     16806     16809     16810
     16808     16806     16809     16811     16812     16818     16821     16822
     16812     16818     16821     16823     16812     16818     16821     16824
     16813     16812     16814     16815     16813     16812     16814     16816
     16813     16812     16814     16817     16813     16812     16818     16819
     16813     16812     16818     16820     16813     16812     16818     16821
     16814     16812     16818     16819     16814     16812     16818     16820
     16814     16812     16818     16821     16815     16814     16812     16818
     16816     16814     16812     16818     16817     16814     16812     16818
     16818     16821     16824     16825     16818     16821     16824     16826
     16818     16821     16824     16827     16819     16818     16821     16822
     16819     16818     16821     16823     16819     16818     16821     16824
     16820     16818     16821     16822     16820     16818     16821     16823
     16820     16818     16821     16824     16821     16824     16827     16828
     16821     16824     16827     16829     16821     16824     16827     16833
     16822     16821     16824     16825     16822     16821     16824     16826
     16822     16821     16824     16827     16823     16821     16824     16825
     16823     16821     16824     16826     16823     16821     16824     16827
     16824     16827     16829     16830     16824     16827     16829     16831
     16824     16827     16829     16832     16824     16827     16833     16834
     16824     16827     16833     16835     16824     16827     16833     16836
     16825     16824     16827     16828     16825     16824     16827     16829
     16825     16824     16827     16833     16826     16824     16827     16828
     16826     16824     16827     16829     16826     16824     16827     16833
     16828     16827     16829     16830     16828     16827     16829     16831
     16828     16827     16829     16832     16828     16827     16833     16834
     16828     16827     16833     16835     16828     16827     16833     16836
     16829     16827     16833     16834     16829     16827     16833     16835
     16829     16827     16833     16836     16830     16829     16827     16833
     16831     16829     16827     16833     16832     16829     16827     16833
     16837     16841     16844     16845     16837     16841     16844     16875
     16837     16883     16880     16875     16837     16883     16880     16881
     16837     16883     16880     16882     16838     16837     16839     16840
     16838     16837     16841     16842     16838     16837     16841     16843
     16838     16837     16841     16844     16838     16837     16883     16880
     16838     16837     16883     16884     16838     16837     16883     16885
     16839     16837     16841     16842     16839     16837     16841     16843
     16839     16837     16841     16844     16839     16837     16883     16880
     16839     16837     16883     16884     16839     16837     16883     16885
     16840     16839     16837     16841     16840     16839     16837     16883
     16841     16837     16883     16880     16841     16837     16883     16884
     16841     16837     16883     16885     16841     16844     16845     16846
     16841     16844     16845     16847     16841     16844     16875     16873
     16841     16844     16875     16876     16841     16844     16875     16880
     16842     16841     16837     16883     16842     16841     16844     16845
     16842     16841     16844     16875     16843     16841     16837     16883
     16843     16841     16844     16845     16843     16841     16844     16875
     16844     16841     16837     16883     16844     16845     16847     16848
     16844     16845     16847     16849     16844     16845     16847     16850
     16844     16875     16873     16850     16844     16875     16873     16870
     16844     16875     16873     16874     16844     16875     16876     16877
     16844     16875     16876     16878     16844     16875     16876     16879
     16844     16875     16880     16881     16844     16875     16880     16882
     16844     16875     16880     16883     16845     16844     16875     16873
     16845     16844     16875     16876     16845     16844     16875     16880
     16845     16847     16850     16851     16845     16847     16850     16852
     16845     16847     16850     16873     16846     16845     16844     16875
     16846     16845     16847     16848     16846     16845     16847     16849
     16846     16845     16847     16850     16847     16845     16844     16875
     16847     16850     16852     16853     16847     16850     16852     16854
     16847     16850     16852     16862     16847     16850     16873     16870
     16847     16850     16873     16874     16847     16850     16873     16875
     16848     16847     16850     16851     16848     16847     16850     16852
     16848     16847     16850     16873     16849     16847     16850     16851
     16849     16847     16850     16852     16849     16847     16850     16873
     16850     16852     16854     16855     16850     16852     16854     16856
     16850     16852     16854     16857     16850     16852     16862     16860
     16850     16852     16862     16863     16850     16852     16862     16867
     16850     16873     16870     16867     16850     16873     16870     16871
     16850     16873     16870     16872     16850     16873     16875     16876
     16850     16873     16875     16880     16851     16850     16852     16853
     16851     16850     16852     16854     16851     16850     16852     16862
     16851     16850     16873     16870     16851     16850     16873     16874
     16851     16850     16873     16875     16852     16850     16873     16870
     16852     16850     16873     16874     16852     16850     16873     16875
     16852     16854     16857     16858     16852     16854     16857     16859
     16852     16854     16857     16860     16852     16862     16860     16857
     16852     16862     16860     16861     16852     16862     16860     16886
     16852     16862     16863     16864     16852     16862     16863     16865
     16852     16862     16863     16866     16852     16862     16867     16868
     16852     16862     16867     16869     16852     16862     16867     16870
     16853     16852     16850     16873     16853     16852     16854     16855
     16853     16852     16854     16856     16853     16852     16854     16857
     16853     16852     16862     16860     16853     16852     16862     16863
     16853     16852     16862     16867     16854     16852     16850     16873
     16854     16852     16862     16860     16854     16852     16862     16863
     16854     16852     16862     16867     16854     16857     16860     16861
     16854     16857     16860     16862     16854     16857     16860     16886
     16855     16854     16852     16862     16855     16854     16857     16858
     16855     16854     16857     16859     16855     16854     16857     16860
     16856     16854     16852     16862     16856     16854     16857     16858
     16856     16854     16857     16859     16856     16854     16857     16860
     16857     16854     16852     16862     16857     16860     16862     16863
     16857     16860     16862     16867     16857     16860     16886     16887
     16857     16860     16886     16888     16857     16860     16886     16892
     16858     16857     16860     16861     16858     16857     16860     16862
     16858     16857     16860     16886     16859     16857     16860     16861
     16859     16857     16860     16862     16859     16857     16860     16886
     16860     16862     16863     16864     16860     16862     16863     16865
     16860     16862     16863     16866     16860     16862     16867     16868
     16860     16862     16867     16869     16860     16862     16867     16870
     16860     16886     16888     16889     16860     16886     16888     16890
     16860     16886     16888     16891     16860     16886     16892     16893
     16860     16886     16892     16894     16860     16886     16892     16895
     16861     16860     16862     16863     16861     16860     16862     16867
     16861     16860     16886     16887     16861     16860     16886     16888
     16861     16860     16886     16892     16862     16852     16850     16873
     16862     16860     16886     16887     16862     16860     16886     16888
     16862     16860     16886     16892     16862     16867     16870     16871
     16862     16867     16870     16872     16862     16867     16870     16873
     16863     16862     16860     16886     16863     16862     16867     16868
     16863     16862     16867     16869     16863     16862     16867     16870
     16864     16863     16862     16867     16865     16863     16862     16867
     16866     16863     16862     16867     16867     16862     16860     16886
     16867     16870     16873     16874     16867     16870     16873     16875
     16868     16867     16870     16871     16868     16867     16870     16872
     16868     16867     16870     16873     16869     16867     16870     16871
     16869     16867     16870     16872     16869     16867     16870     16873
     16870     16873     16875     16876     16870     16873     16875     16880
     16871     16870     16873     16874     16871     16870     16873     16875
     16872     16870     16873     16874     16872     16870     16873     16875
     16873     16875     16876     16877     16873     16875     16876     16878
     16873     16875     16876     16879     16873     16875     16880     16881
     16873     16875     16880     16882     16873     16875     16880     16883
     16874     16873     16875     16876     16874     16873     16875     16880
     16875     16880     16883     16884     16875     16880     16883     16885
     16876     16875     16880     16881     16876     16875     16880     16882
     16876     16875     16880     16883     16877     16876     16875     16880
     16878     16876     16875     16880     16879     16876     16875     16880
     16881     16880     16883     16884     16881     16880     16883     16885
     16882     16880     16883     16884     16882     16880     16883     16885
     16886     16892     16895     16896     16886     16892     16895     16897
     16886     16892     16895     16898     16887     16886     16888     16889
     16887     16886     16888     16890     16887     16886     16888     16891
     16887     16886     16892     16893     16887     16886     16892     16894
     16887     16886     16892     16895     16888     16886     16892     16893
     16888     16886     16892     16894     16888     16886     16892     16895
     16889     16888     16886     16892     16890     16888     16886     16892
     16891     16888     16886     16892     16892     16895     16898     16899
     16892     16895     16898     16900     16892     16895     16898     16901
     16893     16892     16895     16896     16893     16892     16895     16897
     16893     16892     16895     16898     16894     16892     16895     16896
     16894     16892     16895     16897     16894     16892     16895     16898
     16895     16898     16901     16902     16895     16898     16901     16903
     16895     16898     16901     16907     16896     16895     16898     16899
     16896     16895     16898     16900     16896     16895     16898     16901
     16897     16895     16898     16899     16897     16895     16898     16900
     16897     16895     16898     16901     16898     16901     16903     16904
     16898     16901     16903     16905     16898     16901     16903     16906
     16898     16901     16907     16908     16898     16901     16907     16909
     16898     16901     16907     16910     16899     16898     16901     16902
     16899     16898     16901     16903     16899     16898     16901     16907
     16900     16898     16901     16902     16900     16898     16901     16903
     16900     16898     16901     16907     16902     16901     16903     16904
     16902     16901     16903     16905     16902     16901     16903     16906
     16902     16901     16907     16908     16902     16901     16907     16909
     16902     16901     16907     16910     16903     16901     16907     16908
     16903     16901     16907     16909     16903     16901     16907     16910
     16904     16903     16901     16907     16905     16903     16901     16907
     16906     16903     16901     16907     16911     16915     16918     16919
     16911     16915     16918     16949     16911     16957     16954     16949
     16911     16957     16954     16955     16911     16957     16954     16956
     16912     16911     16913     16914     16912     16911     16915     16916
     16912     16911     16915     16917     16912     16911     16915     16918
     16912     16911     16957     16954     16912     16911     16957     16958
     16912     16911     16957     16959     16913     16911     16915     16916
     16913     16911     16915     16917     16913     16911     16915     16918
     16913     16911     16957     16954     16913     16911     16957     16958
     16913     16911     16957     16959     16914     16913     16911     16915
     16914     16913     16911     16957     16915     16911     16957     16954
     16915     16911     16957     16958     16915     16911     16957     16959
     16915     16918     16919     16920     16915     16918     16919     16921
     16915     16918     16949     16947     16915     16918     16949     16950
     16915     16918     16949     16954     16916     16915     16911     16957
     16916     16915     16918     16919     16916     16915     16918     16949
     16917     16915     16911     16957     16917     16915     16918     16919
     16917     16915     16918     16949     16918     16915     16911     16957
     16918     16919     16921     16922     16918     16919     16921     16923
     16918     16919     16921     16924     16918     16949     16947     16924
     16918     16949     16947     16944     16918     16949     16947     16948
     16918     16949     16950     16951     16918     16949     16950     16952
     16918     16949     16950     16953     16918     16949     16954     16955
     16918     16949     16954     16956     16918     16949     16954     16957
     16919     16918     16949     16947     16919     16918     16949     16950
     16919     16918     16949     16954     16919     16921     16924     16925
     16919     16921     16924     16926     16919     16921     16924     16947
     16920     16919     16918     16949     16920     16919     16921     16922
     16920     16919     16921     16923     16920     16919     16921     16924
     16921     16919     16918     16949     16921     16924     16926     16927
     16921     16924     16926     16928     16921     16924     16926     16936
     16921     16924     16947     16944     16921     16924     16947     16948
     16921     16924     16947     16949     16922     16921     16924     16925
     16922     16921     16924     16926     16922     16921     16924     16947
     16923     16921     16924     16925     16923     16921     16924     16926
     16923     16921     16924     16947     16924     16926     16928     16929
     16924     16926     16928     16930     16924     16926     16928     16931
     16924     16926     16936     16934     16924     16926     16936     16937
     16924     16926     16936     16941     16924     16947     16944     16941
     16924     16947     16944     16945     16924     16947     16944     16946
     16924     16947     16949     16950     16924     16947     16949     16954
     16925     16924     16926     16927     16925     16924     16926     16928
     16925     16924     16926     16936     16925     16924     16947     16944
     16925     16924     16947     16948     16925     16924     16947     16949
     16926     16924     16947     16944     16926     16924     16947     16948
     16926     16924     16947     16949     16926     16928     16931     16932
     16926     16928     16931     16933     16926     16928     16931     16934
     16926     16936     16934     16931     16926     16936     16934     16935
     16926     16936     16934     16960     16926     16936     16937     16938
     16926     16936     16937     16939     16926     16936     16937     16940
     16926     16936     16941     16942     16926     16936     16941     16943
     16926     16936     16941     16944     16927     16926     16924     16947
     16927     16926     16928     16929     16927     16926     16928     16930
     16927     16926     16928     16931     16927     16926     16936     16934
     16927     16926     16936     16937     16927     16926     16936     16941
     16928     16926     16924     16947     16928     16926     16936     16934
     16928     16926     16936     16937     16928     16926     16936     16941
     16928     16931     16934     16935     16928     16931     16934     16936
     16928     16931     16934     16960     16929     16928     16926     16936
     16929     16928     16931     16932     16929     16928     16931     16933
     16929     16928     16931     16934     16930     16928     16926     16936
     16930     16928     16931     16932     16930     16928     16931     16933
     16930     16928     16931     16934     16931     16928     16926     16936
     16931     16934     16936     16937     16931     16934     16936     16941
     16931     16934     16960     16961     16931     16934     16960     16962
     16931     16934     16960     16966     16932     16931     16934     16935
     16932     16931     16934     16936     16932     16931     16934     16960
     16933     16931     16934     16935     16933     16931     16934     16936
     16933     16931     16934     16960     16934     16936     16937     16938
     16934     16936     16937     16939     16934     16936     16937     16940
     16934     16936     16941     16942     16934     16936     16941     16943
     16934     16936     16941     16944     16934     16960     16962     16963
     16934     16960     16962     16964     16934     16960     16962     16965
     16934     16960     16966     16967     16934     16960     16966     16968
     16934     16960     16966     16969     16935     16934     16936     16937
     16935     16934     16936     16941     16935     16934     16960     16961
     16935     16934     16960     16962     16935     16934     16960     16966
     16936     16926     16924     16947     16936     16934     16960     16961
     16936     16934     16960     16962     16936     16934     16960     16966
     16936     16941     16944     16945     16936     16941     16944     16946
     16936     16941     16944     16947     16937     16936     16934     16960
     16937     16936     16941     16942     16937     16936     16941     16943
     16937     16936     16941     16944     16938     16937     16936     16941
     16939     16937     16936     16941     16940     16937     16936     16941
     16941     16936     16934     16960     16941     16944     16947     16948
     16941     16944     16947     16949     16942     16941     16944     16945
     16942     16941     16944     16946     16942     16941     16944     16947
     16943     16941     16944     16945     16943     16941     16944     16946
     16943     16941     16944     16947     16944     16947     16949     16950
     16944     16947     16949     16954     16945     16944     16947     16948
     16945     16944     16947     16949     16946     16944     16947     16948
     16946     16944     16947     16949     16947     16949     16950     16951
     16947     16949     16950     16952     16947     16949     16950     16953
     16947     16949     16954     16955     16947     16949     16954     16956
     16947     16949     16954     16957     16948     16947     16949     16950
     16948     16947     16949     16954     16949     16954     16957     16958
     16949     16954     16957     16959     16950     16949     16954     16955
     16950     16949     16954     16956     16950     16949     16954     16957
     16951     16950     16949     16954     16952     16950     16949     16954
     16953     16950     16949     16954     16955     16954     16957     16958
     16955     16954     16957     16959     16956     16954     16957     16958
     16956     16954     16957     16959     16960     16966     16969     16970
     16960     16966     16969     16971     16960     16966     16969     16972
     16961     16960     16962     16963     16961     16960     16962     16964
     16961     16960     16962     16965     16961     16960     16966     16967
     16961     16960     16966     16968     16961     16960     16966     16969
     16962     16960     16966     16967     16962     16960     16966     16968
     16962     16960     16966     16969     16963     16962     16960     16966
     16964     16962     16960     16966     16965     16962     16960     16966
     16966     16969     16972     16973     16966     16969     16972     16974
     16966     16969     16972     16975     16967     16966     16969     16970
     16967     16966     16969     16971     16967     16966     16969     16972
     16968     16966     16969     16970     16968     16966     16969     16971
     16968     16966     16969     16972     16969     16972     16975     16976
     16969     16972     16975     16977     16969     16972     16975     16981
     16970     16969     16972     16973     16970     16969     16972     16974
     16970     16969     16972     16975     16971     16969     16972     16973
     16971     16969     16972     16974     16971     16969     16972     16975
     16972     16975     16977     16978     16972     16975     16977     16979
     16972     16975     16977     16980     16972     16975     16981     16982
     16972     16975     16981     16983     16972     16975     16981     16984
     16973     16972     16975     16976     16973     16972     16975     16977
     16973     16972     16975     16981     16974     16972     16975     16976
     16974     16972     16975     16977     16974     16972     16975     16981
     16976     16975     16977     16978     16976     16975     16977     16979
     16976     16975     16977     16980     16976     16975     16981     16982
     16976     16975     16981     16983     16976     16975     16981     16984
     16977     16975     16981     16982     16977     16975     16981     16983
     16977     16975     16981     16984     16978     16977     16975     16981
     16979     16977     16975     16981     16980     16977     16975     16981
     16985     16989     16992     16993     16985     16989     16992     16994
     16985     16989     16992     16998     16986     16985     16989     16990
     16986     16985     16989     16991     16986     16985     16989     16992
     16987     16985     16989     16990     16987     16985     16989     16991
     16987     16985     16989     16992     16988     16985     16989     16990
     16988     16985     16989     16991     16988     16985     16989     16992
     16989     16992     16998     16995     16990     16989     16992     16993
     16990     16989     16992     16994     16990     16989     16992     16998
     16991     16989     16992     16993     16991     16989     16992     16994
     16991     16989     16992     16998     16992     16998     16995     16996
     16992     16998     16995     16997     16992     16998     16995     16999
     16993     16992     16998     16995     16994     16992     16998     16995
     16995     16999     17000     17001     16995     16999     17000     17002
     16995     16999     17000     17003     16996     16995     16999     17000
     16997     16995     16999     17000     16998     16995     16999     17000
     16999     17000     17003     17004     16999     17000     17003     17005
     16999     17000     17003     17011     17000     17003     17005     17006
     17000     17003     17011     17012     17000     17003     17011     17013
     17000     17003     17011     17014     17001     17000     17003     17004
     17001     17000     17003     17005     17001     17000     17003     17011
     17002     17000     17003     17004     17002     17000     17003     17005
     17002     17000     17003     17011     17003     17005     17006     17007
     17003     17005     17006     17008     17003     17011     17014     17015
     17004     17003     17005     17006     17004     17003     17011     17012
     17004     17003     17011     17013     17004     17003     17011     17014
     17005     17003     17011     17012     17005     17003     17011     17013
     17005     17003     17011     17014     17005     17006     17008     17009
     17005     17006     17008     17010     17005     17006     17008     17020
     17006     17005     17003     17011     17006     17008     17020     17021
     17006     17008     17020     17022     17006     17008     17020     17023
     17007     17006     17008     17009     17007     17006     17008     17010
     17007     17006     17008     17020     17008     17020     17023     17024
     17008     17020     17023     17025     17008     17020     17023     17026
     17009     17008     17020     17021     17009     17008     17020     17022
     17009     17008     17020     17023     17010     17008     17020     17021
     17010     17008     17020     17022     17010     17008     17020     17023
     17011     17014     17015     17016     17011     17014     17015     17017
     17012     17011     17014     17015     17013     17011     17014     17015
     17014     17015     17017     17018     17014     17015     17017     17019
     17014     17015     17017     17067     17015     17017     17067     17068
     17015     17017     17067     17069     17015     17017     17067     17070
     17016     17015     17017     17018     17016     17015     17017     17019
     17016     17015     17017     17067     17017     17067     17070     17071
     17017     17067     17070     17072     17017     17067     17070     17073
     17018     17017     17067     17068     17018     17017     17067     17069
     17018     17017     17067     17070     17019     17017     17067     17068
     17019     17017     17067     17069     17019     17017     17067     17070
     17020     17023     17026     17027     17020     17023     17026     17028
     17020     17023     17026     17029     17021     17020     17023     17024
     17021     17020     17023     17025     17021     17020     17023     17026
     17022     17020     17023     17024     17022     17020     17023     17025
     17022     17020     17023     17026     17023     17026     17029     17030
     17023     17026     17029     17031     17023     17026     17029     17032
     17024     17023     17026     17027     17024     17023     17026     17028
     17024     17023     17026     17029     17025     17023     17026     17027
     17025     17023     17026     17028     17025     17023     17026     17029
     17026     17029     17032     17033     17026     17029     17032     17034
     17026     17029     17032     17035     17027     17026     17029     17030
     17027     17026     17029     17031     17027     17026     17029     17032
     17028     17026     17029     17030     17028     17026     17029     17031
     17028     17026     17029     17032     17029     17032     17035     17036
     17029     17032     17035     17037     17029     17032     17035     17038
     17030     17029     17032     17033     17030     17029     17032     17034
     17030     17029     17032     17035     17031     17029     17032     17033
     17031     17029     17032     17034     17031     17029     17032     17035
     17032     17035     17038     17039     17032     17035     17038     17040
     17033     17032     17035     17036     17033     17032     17035     17037
     17033     17032     17035     17038     17034     17032     17035     17036
     17034     17032     17035     17037     17034     17032     17035     17038
     17035     17038     17040     17041     17035     17038     17040     17042
     17036     17035     17038     17039     17036     17035     17038     17040
     17037     17035     17038     17039     17037     17035     17038     17040
     17038     17040     17042     17043     17038     17040     17042     17044
     17038     17040     17042     17045     17039     17038     17040     17041
     17039     17038     17040     17042     17040     17042     17045     17046
     17040     17042     17045     17047     17040     17042     17045     17048
     17041     17040     17042     17043     17041     17040     17042     17044
     17041     17040     17042     17045     17042     17045     17048     17049
     17042     17045     17048     17050     17042     17045     17048     17051
     17043     17042     17045     17046     17043     17042     17045     17047
     17043     17042     17045     17048     17044     17042     17045     17046
     17044     17042     17045     17047     17044     17042     17045     17048
     17045     17048     17051     17052     17045     17048     17051     17053
     17045     17048     17051     17054     17046     17045     17048     17049
     17046     17045     17048     17050     17046     17045     17048     17051
     17047     17045     17048     17049     17047     17045     17048     17050
     17047     17045     17048     17051     17048     17051     17054     17055
     17048     17051     17054     17056     17048     17051     17054     17057
     17049     17048     17051     17052     17049     17048     17051     17053
     17049     17048     17051     17054     17050     17048     17051     17052
     17050     17048     17051     17053     17050     17048     17051     17054
     17051     17054     17057     17058     17051     17054     17057     17059
     17051     17054     17057     17060     17052     17051     17054     17055
     17052     17051     17054     17056     17052     17051     17054     17057
     17053     17051     17054     17055     17053     17051     17054     17056
     17053     17051     17054     17057     17054     17057     17060     17061
     17054     17057     17060     17062     17054     17057     17060     17063
     17055     17054     17057     17058     17055     17054     17057     17059
     17055     17054     17057     17060     17056     17054     17057     17058
     17056     17054     17057     17059     17056     17054     17057     17060
     17057     17060     17063     17064     17057     17060     17063     17065
     17057     17060     17063     17066     17058     17057     17060     17061
     17058     17057     17060     17062     17058     17057     17060     17063
     17059     17057     17060     17061     17059     17057     17060     17062
     17059     17057     17060     17063     17061     17060     17063     17064
     17061     17060     17063     17065     17061     17060     17063     17066
     17062     17060     17063     17064     17062     17060     17063     17065
     17062     17060     17063     17066     17067     17070     17073     17074
     17067     17070     17073     17075     17067     17070     17073     17076
     17068     17067     17070     17071     17068     17067     17070     17072
     17068     17067     17070     17073     17069     17067     17070     17071
     17069     17067     17070     17072     17069     17067     17070     17073
     17070     17073     17076     17077     17070     17073     17076     17078
     17070     17073     17076     17079     17071     17070     17073     17074
     17071     17070     17073     17075     17071     17070     17073     17076
     17072     17070     17073     17074     17072     17070     17073     17075
     17072     17070     17073     17076     17073     17076     17079     17080
     17073     17076     17079     17081     17073     17076     17079     17082
     17074     17073     17076     17077     17074     17073     17076     17078
     17074     17073     17076     17079     17075     17073     17076     17077
     17075     17073     17076     17078     17075     17073     17076     17079
     17076     17079     17082     17083     17076     17079     17082     17084
     17076     17079     17082     17085     17077     17076     17079     17080
     17077     17076     17079     17081     17077     17076     17079     17082
     17078     17076     17079     17080     17078     17076     17079     17081
     17078     17076     17079     17082     17079     17082     17085     17086
     17079     17082     17085     17087     17079     17082     17085     17088
     17080     17079     17082     17083     17080     17079     17082     17084
     17080     17079     17082     17085     17081     17079     17082     17083
     17081     17079     17082     17084     17081     17079     17082     17085
     17082     17085     17088     17089     17082     17085     17088     17090
     17082     17085     17088     17091     17083     17082     17085     17086
     17083     17082     17085     17087     17083     17082     17085     17088
     17084     17082     17085     17086     17084     17082     17085     17087
     17084     17082     17085     17088     17085     17088     17091     17092
     17085     17088     17091     17093     17085     17088     17091     17094
     17086     17085     17088     17089     17086     17085     17088     17090
     17086     17085     17088     17091     17087     17085     17088     17089
     17087     17085     17088     17090     17087     17085     17088     17091
     17088     17091     17094     17095     17088     17091     17094     17096
     17088     17091     17094     17097     17089     17088     17091     17092
     17089     17088     17091     17093     17089     17088     17091     17094
     17090     17088     17091     17092     17090     17088     17091     17093
     17090     17088     17091     17094     17091     17094     17097     17098
     17091     17094     17097     17099     17091     17094     17097     17100
     17092     17091     17094     17095     17092     17091     17094     17096
     17092     17091     17094     17097     17093     17091     17094     17095
     17093     17091     17094     17096     17093     17091     17094     17097
     17094     17097     17100     17101     17094     17097     17100     17102
     17094     17097     17100     17103     17095     17094     17097     17098
     17095     17094     17097     17099     17095     17094     17097     17100
     17096     17094     17097     17098     17096     17094     17097     17099
     17096     17094     17097     17100     17097     17100     17103     17104
     17097     17100     17103     17105     17097     17100     17103     17106
     17098     17097     17100     17101     17098     17097     17100     17102
     17098     17097     17100     17103     17099     17097     17100     17101
     17099     17097     17100     17102     17099     17097     17100     17103
     17100     17103     17106     17107     17100     17103     17106     17108
     17100     17103     17106     17109     17101     17100     17103     17104
     17101     17100     17103     17105     17101     17100     17103     17106
     17102     17100     17103     17104     17102     17100     17103     17105
     17102     17100     17103     17106     17103     17106     17109     17110
     17103     17106     17109     17111     17103     17106     17109     17112
     17104     17103     17106     17107     17104     17103     17106     17108
     17104     17103     17106     17109     17105     17103     17106     17107
     17105     17103     17106     17108     17105     17103     17106     17109
     17106     17109     17112     17113     17106     17109     17112     17114
     17106     17109     17112     17115     17107     17106     17109     17110
     17107     17106     17109     17111     17107     17106     17109     17112
     17108     17106     17109     17110     17108     17106     17109     17111
     17108     17106     17109     17112     17110     17109     17112     17113
     17110     17109     17112     17114     17110     17109     17112     17115
     17111     17109     17112     17113     17111     17109     17112     17114
     17111     17109     17112     17115     17116     17129     17132     17133
     17116     17129     17132     17134     17116     17129     17132     17138
     17117     17116     17121     17122     17117     17116     17121     17123
     17117     17116     17121     17124     17117     17116     17125     17126
     17117     17116     17125     17127     17117     17116     17125     17128
     17117     17116     17129     17130     17117     17116     17129     17131
     17117     17116     17129     17132     17118     17117     17116     17121
     17118     17117     17116     17125     17118     17117     17116     17129
     17119     17117     17116     17121     17119     17117     17116     17125
     17119     17117     17116     17129     17120     17117     17116     17121
     17120     17117     17116     17125     17120     17117     17116     17129
     17121     17116     17125     17126     17121     17116     17125     17127
     17121     17116     17125     17128     17121     17116     17129     17130
     17121     17116     17129     17131     17121     17116     17129     17132
     17122     17121     17116     17125     17122     17121     17116     17129
     17123     17121     17116     17125     17123     17121     17116     17129
     17124     17121     17116     17125     17124     17121     17116     17129
     17125     17116     17129     17130     17125     17116     17129     17131
     17125     17116     17129     17132     17126     17125     17116     17129
     17127     17125     17116     17129     17128     17125     17116     17129
     17129     17132     17138     17135     17130     17129     17132     17133
     17130     17129     17132     17134     17130     17129     17132     17138
     17131     17129     17132     17133     17131     17129     17132     17134
     17131     17129     17132     17138     17132     17138     17135     17136
     17132     17138     17135     17137     17132     17138     17135     17139
     17133     17132     17138     17135     17134     17132     17138     17135
     17135     17139     17140     17141     17135     17139     17140     17142
     17135     17139     17140     17143     17136     17135     17139     17140
     17137     17135     17139     17140     17138     17135     17139     17140
     17139     17140     17143     17144     17139     17140     17143     17145
     17139     17140     17143     17151     17140     17143     17145     17146
     17140     17143     17151     17152     17140     17143     17151     17153
     17140     17143     17151     17154     17141     17140     17143     17144
     17141     17140     17143     17145     17141     17140     17143     17151
     17142     17140     17143     17144     17142     17140     17143     17145
     17142     17140     17143     17151     17143     17145     17146     17147
     17143     17145     17146     17148     17143     17151     17154     17155
     17144     17143     17145     17146     17144     17143     17151     17152
     17144     17143     17151     17153     17144     17143     17151     17154
     17145     17143     17151     17152     17145     17143     17151     17153
     17145     17143     17151     17154     17145     17146     17148     17149
     17145     17146     17148     17150     17145     17146     17148     17160
     17146     17145     17143     17151     17146     17148     17160     17161
     17146     17148     17160     17162     17146     17148     17160     17163
     17147     17146     17148     17149     17147     17146     17148     17150
     17147     17146     17148     17160     17148     17160     17163     17164
     17148     17160     17163     17165     17148     17160     17163     17166
     17149     17148     17160     17161     17149     17148     17160     17162
     17149     17148     17160     17163     17150     17148     17160     17161
     17150     17148     17160     17162     17150     17148     17160     17163
     17151     17154     17155     17156     17151     17154     17155     17157
     17152     17151     17154     17155     17153     17151     17154     17155
     17154     17155     17157     17158     17154     17155     17157     17159
     17154     17155     17157     17205     17155     17157     17205     17206
     17155     17157     17205     17207     17155     17157     17205     17208
     17156     17155     17157     17158     17156     17155     17157     17159
     17156     17155     17157     17205     17157     17205     17208     17209
     17157     17205     17208     17210     17157     17205     17208     17211
     17158     17157     17205     17206     17158     17157     17205     17207
     17158     17157     17205     17208     17159     17157     17205     17206
     17159     17157     17205     17207     17159     17157     17205     17208
     17160     17163     17166     17167     17160     17163     17166     17168
     17160     17163     17166     17169     17161     17160     17163     17164
     17161     17160     17163     17165     17161     17160     17163     17166
     17162     17160     17163     17164     17162     17160     17163     17165
     17162     17160     17163     17166     17163     17166     17169     17170
     17163     17166     17169     17171     17163     17166     17169     17172
     17164     17163     17166     17167     17164     17163     17166     17168
     17164     17163     17166     17169     17165     17163     17166     17167
     17165     17163     17166     17168     17165     17163     17166     17169
     17166     17169     17172     17173     17166     17169     17172     17174
     17166     17169     17172     17175     17167     17166     17169     17170
     17167     17166     17169     17171     17167     17166     17169     17172
     17168     17166     17169     17170     17168     17166     17169     17171
     17168     17166     17169     17172     17169     17172     17175     17176
     17169     17172     17175     17177     17169     17172     17175     17178
     17170     17169     17172     17173     17170     17169     17172     17174
     17170     17169     17172     17175     17171     17169     17172     17173
     17171     17169     17172     17174     17171     17169     17172     17175
     17172     17175     17178     17179     17172     17175     17178     17180
     17173     17172     17175     17176     17173     17172     17175     17177
     17173     17172     17175     17178     17174     17172     17175     17176
     17174     17172     17175     17177     17174     17172     17175     17178
     17175     17178     17180     17181     17175     17178     17180     17182
     17176     17175     17178     17179     17176     17175     17178     17180
     17177     17175     17178     17179     17177     17175     17178     17180
     17178     17180     17182     17183     17178     17180     17182     17184
     17178     17180     17182     17185     17179     17178     17180     17181
     17179     17178     17180     17182     17180     17182     17185     17186
     17180     17182     17185     17187     17181     17180     17182     17183
     17181     17180     17182     17184     17181     17180     17182     17185
     17182     17185     17187     17188     17182     17185     17187     17189
     17183     17182     17185     17186     17183     17182     17185     17187
     17184     17182     17185     17186     17184     17182     17185     17187
     17185     17187     17189     17190     17185     17187     17189     17191
     17185     17187     17189     17192     17186     17185     17187     17188
     17186     17185     17187     17189     17187     17189     17192     17193
     17187     17189     17192     17194     17187     17189     17192     17195
     17188     17187     17189     17190     17188     17187     17189     17191
     17188     17187     17189     17192     17189     17192     17195     17196
     17189     17192     17195     17197     17189     17192     17195     17198
     17190     17189     17192     17193     17190     17189     17192     17194
     17190     17189     17192     17195     17191     17189     17192     17193
     17191     17189     17192     17194     17191     17189     17192     17195
     17192     17195     17198     17199     17192     17195     17198     17200
     17192     17195     17198     17201     17193     17192     17195     17196
     17193     17192     17195     17197     17193     17192     17195     17198
     17194     17192     17195     17196     17194     17192     17195     17197
     17194     17192     17195     17198     17195     17198     17201     17202
     17195     17198     17201     17203     17195     17198     17201     17204
     17196     17195     17198     17199     17196     17195     17198     17200
     17196     17195     17198     17201     17197     17195     17198     17199
     17197     17195     17198     17200     17197     17195     17198     17201
     17199     17198     17201     17202     17199     17198     17201     17203
     17199     17198     17201     17204     17200     17198     17201     17202
     17200     17198     17201     17203     17200     17198     17201     17204
     17205     17208     17211     17212     17205     17208     17211     17213
     17205     17208     17211     17214     17206     17205     17208     17209
     17206     17205     17208     17210     17206     17205     17208     17211
     17207     17205     17208     17209     17207     17205     17208     17210
     17207     17205     17208     17211     17208     17211     17214     17215
     17208     17211     17214     17216     17208     17211     17214     17217
     17209     17208     17211     17212     17209     17208     17211     17213
     17209     17208     17211     17214     17210     17208     17211     17212
     17210     17208     17211     17213     17210     17208     17211     17214
     17211     17214     17217     17218     17211     17214     17217     17219
     17211     17214     17217     17220     17212     17211     17214     17215
     17212     17211     17214     17216     17212     17211     17214     17217
     17213     17211     17214     17215     17213     17211     17214     17216
     17213     17211     17214     17217     17214     17217     17220     17221
     17214     17217     17220     17222     17214     17217     17220     17223
     17215     17214     17217     17218     17215     17214     17217     17219
     17215     17214     17217     17220     17216     17214     17217     17218
     17216     17214     17217     17219     17216     17214     17217     17220
     17217     17220     17223     17224     17217     17220     17223     17225
     17217     17220     17223     17226     17218     17217     17220     17221
     17218     17217     17220     17222     17218     17217     17220     17223
     17219     17217     17220     17221     17219     17217     17220     17222
     17219     17217     17220     17223     17220     17223     17226     17227
     17220     17223     17226     17228     17220     17223     17226     17229
     17221     17220     17223     17224     17221     17220     17223     17225
     17221     17220     17223     17226     17222     17220     17223     17224
     17222     17220     17223     17225     17222     17220     17223     17226
     17223     17226     17229     17230     17223     17226     17229     17231
     17223     17226     17229     17232     17224     17223     17226     17227
     17224     17223     17226     17228     17224     17223     17226     17229
     17225     17223     17226     17227     17225     17223     17226     17228
     17225     17223     17226     17229     17226     17229     17232     17233
     17226     17229     17232     17234     17226     17229     17232     17235
     17227     17226     17229     17230     17227     17226     17229     17231
     17227     17226     17229     17232     17228     17226     17229     17230
     17228     17226     17229     17231     17228     17226     17229     17232
     17229     17232     17235     17236     17229     17232     17235     17237
     17229     17232     17235     17238     17230     17229     17232     17233
     17230     17229     17232     17234     17230     17229     17232     17235
     17231     17229     17232     17233     17231     17229     17232     17234
     17231     17229     17232     17235     17232     17235     17238     17239
     17232     17235     17238     17240     17232     17235     17238     17241
     17233     17232     17235     17236     17233     17232     17235     17237
     17233     17232     17235     17238     17234     17232     17235     17236
     17234     17232     17235     17237     17234     17232     17235     17238
     17235     17238     17241     17242     17235     17238     17241     17243
     17235     17238     17241     17244     17236     17235     17238     17239
     17236     17235     17238     17240     17236     17235     17238     17241
     17237     17235     17238     17239     17237     17235     17238     17240
     17237     17235     17238     17241     17238     17241     17244     17245
     17238     17241     17244     17246     17238     17241     17244     17247
     17239     17238     17241     17242     17239     17238     17241     17243
     17239     17238     17241     17244     17240     17238     17241     17242
     17240     17238     17241     17243     17240     17238     17241     17244
     17241     17244     17247     17248     17241     17244     17247     17249
     17241     17244     17247     17250     17242     17241     17244     17245
     17242     17241     17244     17246     17242     17241     17244     17247
     17243     17241     17244     17245     17243     17241     17244     17246
     17243     17241     17244     17247     17244     17247     17250     17251
     17244     17247     17250     17252     17244     17247     17250     17253
     17245     17244     17247     17248     17245     17244     17247     17249
     17245     17244     17247     17250     17246     17244     17247     17248
     17246     17244     17247     17249     17246     17244     17247     17250
     17248     17247     17250     17251     17248     17247     17250     17252
     17248     17247     17250     17253     17249     17247     17250     17251
     17249     17247     17250     17252     17249     17247     17250     17253
     17254     17258     17261     17262     17254     17258     17261     17292
     17254     17300     17297     17292     17254     17300     17297     17298
     17254     17300     17297     17299     17255     17254     17256     17257
     17255     17254     17258     17259     17255     17254     17258     17260
     17255     17254     17258     17261     17255     17254     17300     17297
     17255     17254     17300     17301     17255     17254     17300     17302
     17256     17254     17258     17259     17256     17254     17258     17260
     17256     17254     17258     17261     17256     17254     17300     17297
     17256     17254     17300     17301     17256     17254     17300     17302
     17257     17256     17254     17258     17257     17256     17254     17300
     17258     17254     17300     17297     17258     17254     17300     17301
     17258     17254     17300     17302     17258     17261     17262     17263
     17258     17261     17262     17264     17258     17261     17292     17290
     17258     17261     17292     17293     17258     17261     17292     17297
     17259     17258     17254     17300     17259     17258     17261     17262
     17259     17258     17261     17292     17260     17258     17254     17300
     17260     17258     17261     17262     17260     17258     17261     17292
     17261     17258     17254     17300     17261     17262     17264     17265
     17261     17262     17264     17266     17261     17262     17264     17267
     17261     17292     17290     17267     17261     17292     17290     17287
     17261     17292     17290     17291     17261     17292     17293     17294
     17261     17292     17293     17295     17261     17292     17293     17296
     17261     17292     17297     17298     17261     17292     17297     17299
     17261     17292     17297     17300     17262     17261     17292     17290
     17262     17261     17292     17293     17262     17261     17292     17297
     17262     17264     17267     17268     17262     17264     17267     17269
     17262     17264     17267     17290     17263     17262     17261     17292
     17263     17262     17264     17265     17263     17262     17264     17266
     17263     17262     17264     17267     17264     17262     17261     17292
     17264     17267     17269     17270     17264     17267     17269     17271
     17264     17267     17269     17279     17264     17267     17290     17287
     17264     17267     17290     17291     17264     17267     17290     17292
     17265     17264     17267     17268     17265     17264     17267     17269
     17265     17264     17267     17290     17266     17264     17267     17268
     17266     17264     17267     17269     17266     17264     17267     17290
     17267     17269     17271     17272     17267     17269     17271     17273
     17267     17269     17271     17274     17267     17269     17279     17277
     17267     17269     17279     17280     17267     17269     17279     17284
     17267     17290     17287     17284     17267     17290     17287     17288
     17267     17290     17287     17289     17267     17290     17292     17293
     17267     17290     17292     17297     17268     17267     17269     17270
     17268     17267     17269     17271     17268     17267     17269     17279
     17268     17267     17290     17287     17268     17267     17290     17291
     17268     17267     17290     17292     17269     17267     17290     17287
     17269     17267     17290     17291     17269     17267     17290     17292
     17269     17271     17274     17275     17269     17271     17274     17276
     17269     17271     17274     17277     17269     17279     17277     17274
     17269     17279     17277     17278     17269     17279     17277     17303
     17269     17279     17280     17281     17269     17279     17280     17282
     17269     17279     17280     17283     17269     17279     17284     17285
     17269     17279     17284     17286     17269     17279     17284     17287
     17270     17269     17267     17290     17270     17269     17271     17272
     17270     17269     17271     17273     17270     17269     17271     17274
     17270     17269     17279     17277     17270     17269     17279     17280
     17270     17269     17279     17284     17271     17269     17267     17290
     17271     17269     17279     17277     17271     17269     17279     17280
     17271     17269     17279     17284     17271     17274     17277     17278
     17271     17274     17277     17279     17271     17274     17277     17303
     17272     17271     17269     17279     17272     17271     17274     17275
     17272     17271     17274     17276     17272     17271     17274     17277
     17273     17271     17269     17279     17273     17271     17274     17275
     17273     17271     17274     17276     17273     17271     17274     17277
     17274     17271     17269     17279     17274     17277     17279     17280
     17274     17277     17279     17284     17274     17277     17303     17304
     17274     17277     17303     17305     17274     17277     17303     17309
     17275     17274     17277     17278     17275     17274     17277     17279
     17275     17274     17277     17303     17276     17274     17277     17278
     17276     17274     17277     17279     17276     17274     17277     17303
     17277     17279     17280     17281     17277     17279     17280     17282
     17277     17279     17280     17283     17277     17279     17284     17285
     17277     17279     17284     17286     17277     17279     17284     17287
     17277     17303     17305     17306     17277     17303     17305     17307
     17277     17303     17305     17308     17277     17303     17309     17310
     17277     17303     17309     17311     17277     17303     17309     17312
     17278     17277     17279     17280     17278     17277     17279     17284
     17278     17277     17303     17304     17278     17277     17303     17305
     17278     17277     17303     17309     17279     17269     17267     17290
     17279     17277     17303     17304     17279     17277     17303     17305
     17279     17277     17303     17309     17279     17284     17287     17288
     17279     17284     17287     17289     17279     17284     17287     17290
     17280     17279     17277     17303     17280     17279     17284     17285
     17280     17279     17284     17286     17280     17279     17284     17287
     17281     17280     17279     17284     17282     17280     17279     17284
     17283     17280     17279     17284     17284     17279     17277     17303
     17284     17287     17290     17291     17284     17287     17290     17292
     17285     17284     17287     17288     17285     17284     17287     17289
     17285     17284     17287     17290     17286     17284     17287     17288
     17286     17284     17287     17289     17286     17284     17287     17290
     17287     17290     17292     17293     17287     17290     17292     17297
     17288     17287     17290     17291     17288     17287     17290     17292
     17289     17287     17290     17291     17289     17287     17290     17292
     17290     17292     17293     17294     17290     17292     17293     17295
     17290     17292     17293     17296     17290     17292     17297     17298
     17290     17292     17297     17299     17290     17292     17297     17300
     17291     17290     17292     17293     17291     17290     17292     17297
     17292     17297     17300     17301     17292     17297     17300     17302
     17293     17292     17297     17298     17293     17292     17297     17299
     17293     17292     17297     17300     17294     17293     17292     17297
     17295     17293     17292     17297     17296     17293     17292     17297
     17298     17297     17300     17301     17298     17297     17300     17302
     17299     17297     17300     17301     17299     17297     17300     17302
     17303     17309     17312     17313     17303     17309     17312     17314
     17303     17309     17312     17315     17304     17303     17305     17306
     17304     17303     17305     17307     17304     17303     17305     17308
     17304     17303     17309     17310     17304     17303     17309     17311
     17304     17303     17309     17312     17305     17303     17309     17310
     17305     17303     17309     17311     17305     17303     17309     17312
     17306     17305     17303     17309     17307     17305     17303     17309
     17308     17305     17303     17309     17309     17312     17315     17316
     17309     17312     17315     17317     17309     17312     17315     17318
     17310     17309     17312     17313     17310     17309     17312     17314
     17310     17309     17312     17315     17311     17309     17312     17313
     17311     17309     17312     17314     17311     17309     17312     17315
     17312     17315     17318     17319     17312     17315     17318     17320
     17312     17315     17318     17324     17313     17312     17315     17316
     17313     17312     17315     17317     17313     17312     17315     17318
     17314     17312     17315     17316     17314     17312     17315     17317
     17314     17312     17315     17318     17315     17318     17320     17321
     17315     17318     17320     17322     17315     17318     17320     17323
     17315     17318     17324     17325     17315     17318     17324     17326
     17315     17318     17324     17327     17316     17315     17318     17319
     17316     17315     17318     17320     17316     17315     17318     17324
     17317     17315     17318     17319     17317     17315     17318     17320
     17317     17315     17318     17324     17319     17318     17320     17321
     17319     17318     17320     17322     17319     17318     17320     17323
     17319     17318     17324     17325     17319     17318     17324     17326
     17319     17318     17324     17327     17320     17318     17324     17325
     17320     17318     17324     17326     17320     17318     17324     17327
     17321     17320     17318     17324     17322     17320     17318     17324
     17323     17320     17318     17324     17328     17332     17335     17336
     17328     17332     17335     17337     17328     17332     17335     17341
     17329     17328     17332     17333     17329     17328     17332     17334
     17329     17328     17332     17335     17330     17328     17332     17333
     17330     17328     17332     17334     17330     17328     17332     17335
     17331     17328     17332     17333     17331     17328     17332     17334
     17331     17328     17332     17335     17332     17335     17341     17338
     17333     17332     17335     17336     17333     17332     17335     17337
     17333     17332     17335     17341     17334     17332     17335     17336
     17334     17332     17335     17337     17334     17332     17335     17341
     17335     17341     17338     17339     17335     17341     17338     17340
     17335     17341     17338     17342     17336     17335     17341     17338
     17337     17335     17341     17338     17338     17342     17343     17344
     17338     17342     17343     17345     17338     17342     17343     17346
     17339     17338     17342     17343     17340     17338     17342     17343
     17341     17338     17342     17343     17342     17343     17346     17347
     17342     17343     17346     17348     17342     17343     17346     17354
     17343     17346     17348     17349     17343     17346     17354     17355
     17343     17346     17354     17356     17343     17346     17354     17357
     17344     17343     17346     17347     17344     17343     17346     17348
     17344     17343     17346     17354     17345     17343     17346     17347
     17345     17343     17346     17348     17345     17343     17346     17354
     17346     17348     17349     17350     17346     17348     17349     17351
     17346     17354     17357     17358     17347     17346     17348     17349
     17347     17346     17354     17355     17347     17346     17354     17356
     17347     17346     17354     17357     17348     17346     17354     17355
     17348     17346     17354     17356     17348     17346     17354     17357
     17348     17349     17351     17352     17348     17349     17351     17353
     17348     17349     17351     17363     17349     17348     17346     17354
     17349     17351     17363     17364     17349     17351     17363     17365
     17349     17351     17363     17366     17350     17349     17351     17352
     17350     17349     17351     17353     17350     17349     17351     17363
     17351     17363     17366     17367     17351     17363     17366     17368
     17351     17363     17366     17369     17352     17351     17363     17364
     17352     17351     17363     17365     17352     17351     17363     17366
     17353     17351     17363     17364     17353     17351     17363     17365
     17353     17351     17363     17366     17354     17357     17358     17359
     17354     17357     17358     17360     17355     17354     17357     17358
     17356     17354     17357     17358     17357     17358     17360     17361
     17357     17358     17360     17362     17357     17358     17360     17410
     17358     17360     17410     17411     17358     17360     17410     17412
     17358     17360     17410     17413     17359     17358     17360     17361
     17359     17358     17360     17362     17359     17358     17360     17410
     17360     17410     17413     17414     17360     17410     17413     17415
     17360     17410     17413     17416     17361     17360     17410     17411
     17361     17360     17410     17412     17361     17360     17410     17413
     17362     17360     17410     17411     17362     17360     17410     17412
     17362     17360     17410     17413     17363     17366     17369     17370
     17363     17366     17369     17371     17364     17363     17366     17367
     17364     17363     17366     17368     17364     17363     17366     17369
     17365     17363     17366     17367     17365     17363     17366     17368
     17365     17363     17366     17369     17366     17369     17371     17372
     17366     17369     17371     17373     17367     17366     17369     17370
     17367     17366     17369     17371     17368     17366     17369     17370
     17368     17366     17369     17371     17369     17371     17373     17374
     17369     17371     17373     17375     17369     17371     17373     17376
     17370     17369     17371     17372     17370     17369     17371     17373
     17371     17373     17376     17377     17371     17373     17376     17378
     17372     17371     17373     17374     17372     17371     17373     17375
     17372     17371     17373     17376     17373     17376     17378     17379
     17373     17376     17378     17380     17374     17373     17376     17377
     17374     17373     17376     17378     17375     17373     17376     17377
     17375     17373     17376     17378     17376     17378     17380     17381
     17376     17378     17380     17382     17376     17378     17380     17383
     17377     17376     17378     17379     17377     17376     17378     17380
     17378     17380     17383     17384     17378     17380     17383     17385
     17379     17378     17380     17381     17379     17378     17380     17382
     17379     17378     17380     17383     17380     17383     17385     17386
     17380     17383     17385     17387     17381     17380     17383     17384
     17381     17380     17383     17385     17382     17380     17383     17384
     17382     17380     17383     17385     17383     17385     17387     17388
     17383     17385     17387     17389     17383     17385     17387     17390
     17384     17383     17385     17386     17384     17383     17385     17387
     17385     17387     17390     17391     17385     17387     17390     17392
     17386     17385     17387     17388     17386     17385     17387     17389
     17386     17385     17387     17390     17387     17390     17392     17393
     17387     17390     17392     17394     17388     17387     17390     17391
     17388     17387     17390     17392     17389     17387     17390     17391
     17389     17387     17390     17392     17390     17392     17394     17395
     17390     17392     17394     17396     17390     17392     17394     17397
     17391     17390     17392     17393     17391     17390     17392     17394
     17392     17394     17397     17398     17392     17394     17397     17399
     17392     17394     17397     17400     17393     17392     17394     17395
     17393     17392     17394     17396     17393     17392     17394     17397
     17394     17397     17400     17401     17394     17397     17400     17402
     17394     17397     17400     17403     17395     17394     17397     17398
     17395     17394     17397     17399     17395     17394     17397     17400
     17396     17394     17397     17398     17396     17394     17397     17399
     17396     17394     17397     17400     17397     17400     17403     17404
     17397     17400     17403     17405     17397     17400     17403     17406
     17398     17397     17400     17401     17398     17397     17400     17402
     17398     17397     17400     17403     17399     17397     17400     17401
     17399     17397     17400     17402     17399     17397     17400     17403
     17400     17403     17406     17407     17400     17403     17406     17408
     17400     17403     17406     17409     17401     17400     17403     17404
     17401     17400     17403     17405     17401     17400     17403     17406
     17402     17400     17403     17404     17402     17400     17403     17405
     17402     17400     17403     17406     17404     17403     17406     17407
     17404     17403     17406     17408     17404     17403     17406     17409
     17405     17403     17406     17407     17405     17403     17406     17408
     17405     17403     17406     17409     17410     17413     17416     17417
     17410     17413     17416     17418     17410     17413     17416     17419
     17411     17410     17413     17414     17411     17410     17413     17415
     17411     17410     17413     17416     17412     17410     17413     17414
     17412     17410     17413     17415     17412     17410     17413     17416
     17413     17416     17419     17420     17413     17416     17419     17421
     17413     17416     17419     17422     17414     17413     17416     17417
     17414     17413     17416     17418     17414     17413     17416     17419
     17415     17413     17416     17417     17415     17413     17416     17418
     17415     17413     17416     17419     17416     17419     17422     17423
     17416     17419     17422     17424     17416     17419     17422     17425
     17417     17416     17419     17420     17417     17416     17419     17421
     17417     17416     17419     17422     17418     17416     17419     17420
     17418     17416     17419     17421     17418     17416     17419     17422
     17419     17422     17425     17426     17419     17422     17425     17427
     17419     17422     17425     17428     17420     17419     17422     17423
     17420     17419     17422     17424     17420     17419     17422     17425
     17421     17419     17422     17423     17421     17419     17422     17424
     17421     17419     17422     17425     17422     17425     17428     17429
     17422     17425     17428     17430     17422     17425     17428     17431
     17423     17422     17425     17426     17423     17422     17425     17427
     17423     17422     17425     17428     17424     17422     17425     17426
     17424     17422     17425     17427     17424     17422     17425     17428
     17425     17428     17431     17432     17425     17428     17431     17433
     17425     17428     17431     17434     17426     17425     17428     17429
     17426     17425     17428     17430     17426     17425     17428     17431
     17427     17425     17428     17429     17427     17425     17428     17430
     17427     17425     17428     17431     17428     17431     17434     17435
     17428     17431     17434     17436     17428     17431     17434     17437
     17429     17428     17431     17432     17429     17428     17431     17433
     17429     17428     17431     17434     17430     17428     17431     17432
     17430     17428     17431     17433     17430     17428     17431     17434
     17431     17434     17437     17438     17431     17434     17437     17439
     17431     17434     17437     17440     17432     17431     17434     17435
     17432     17431     17434     17436     17432     17431     17434     17437
     17433     17431     17434     17435     17433     17431     17434     17436
     17433     17431     17434     17437     17434     17437     17440     17441
     17434     17437     17440     17442     17434     17437     17440     17443
     17435     17434     17437     17438     17435     17434     17437     17439
     17435     17434     17437     17440     17436     17434     17437     17438
     17436     17434     17437     17439     17436     17434     17437     17440
     17437     17440     17443     17444     17437     17440     17443     17445
     17437     17440     17443     17446     17438     17437     17440     17441
     17438     17437     17440     17442     17438     17437     17440     17443
     17439     17437     17440     17441     17439     17437     17440     17442
     17439     17437     17440     17443     17440     17443     17446     17447
     17440     17443     17446     17448     17440     17443     17446     17449
     17441     17440     17443     17444     17441     17440     17443     17445
     17441     17440     17443     17446     17442     17440     17443     17444
     17442     17440     17443     17445     17442     17440     17443     17446
     17443     17446     17449     17450     17443     17446     17449     17451
     17443     17446     17449     17452     17444     17443     17446     17447
     17444     17443     17446     17448     17444     17443     17446     17449
     17445     17443     17446     17447     17445     17443     17446     17448
     17445     17443     17446     17449     17446     17449     17452     17453
     17446     17449     17452     17454     17446     17449     17452     17455
     17447     17446     17449     17450     17447     17446     17449     17451
     17447     17446     17449     17452     17448     17446     17449     17450
     17448     17446     17449     17451     17448     17446     17449     17452
     17449     17452     17455     17456     17449     17452     17455     17457
     17449     17452     17455     17458     17450     17449     17452     17453
     17450     17449     17452     17454     17450     17449     17452     17455
     17451     17449     17452     17453     17451     17449     17452     17454
     17451     17449     17452     17455     17453     17452     17455     17456
     17453     17452     17455     17457     17453     17452     17455     17458
     17454     17452     17455     17456     17454     17452     17455     17457
     17454     17452     17455     17458     17459     17463     17466     17467
     17459     17463     17466     17497     17459     17505     17502     17497
     17459     17505     17502     17503     17459     17505     17502     17504
     17460     17459     17461     17462     17460     17459     17463     17464
     17460     17459     17463     17465     17460     17459     17463     17466
     17460     17459     17505     17502     17460     17459     17505     17506
     17460     17459     17505     17507     17461     17459     17463     17464
     17461     17459     17463     17465     17461     17459     17463     17466
     17461     17459     17505     17502     17461     17459     17505     17506
     17461     17459     17505     17507     17462     17461     17459     17463
     17462     17461     17459     17505     17463     17459     17505     17502
     17463     17459     17505     17506     17463     17459     17505     17507
     17463     17466     17467     17468     17463     17466     17467     17469
     17463     17466     17497     17495     17463     17466     17497     17498
     17463     17466     17497     17502     17464     17463     17459     17505
     17464     17463     17466     17467     17464     17463     17466     17497
     17465     17463     17459     17505     17465     17463     17466     17467
     17465     17463     17466     17497     17466     17463     17459     17505
     17466     17467     17469     17470     17466     17467     17469     17471
     17466     17467     17469     17472     17466     17497     17495     17472
     17466     17497     17495     17492     17466     17497     17495     17496
     17466     17497     17498     17499     17466     17497     17498     17500
     17466     17497     17498     17501     17466     17497     17502     17503
     17466     17497     17502     17504     17466     17497     17502     17505
     17467     17466     17497     17495     17467     17466     17497     17498
     17467     17466     17497     17502     17467     17469     17472     17473
     17467     17469     17472     17474     17467     17469     17472     17495
     17468     17467     17466     17497     17468     17467     17469     17470
     17468     17467     17469     17471     17468     17467     17469     17472
     17469     17467     17466     17497     17469     17472     17474     17475
     17469     17472     17474     17476     17469     17472     17474     17484
     17469     17472     17495     17492     17469     17472     17495     17496
     17469     17472     17495     17497     17470     17469     17472     17473
     17470     17469     17472     17474     17470     17469     17472     17495
     17471     17469     17472     17473     17471     17469     17472     17474
     17471     17469     17472     17495     17472     17474     17476     17477
     17472     17474     17476     17478     17472     17474     17476     17479
     17472     17474     17484     17482     17472     17474     17484     17485
     17472     17474     17484     17489     17472     17495     17492     17489
     17472     17495     17492     17493     17472     17495     17492     17494
     17472     17495     17497     17498     17472     17495     17497     17502
     17473     17472     17474     17475     17473     17472     17474     17476
     17473     17472     17474     17484     17473     17472     17495     17492
     17473     17472     17495     17496     17473     17472     17495     17497
     17474     17472     17495     17492     17474     17472     17495     17496
     17474     17472     17495     17497     17474     17476     17479     17480
     17474     17476     17479     17481     17474     17476     17479     17482
     17474     17484     17482     17479     17474     17484     17482     17483
     17474     17484     17482     17508     17474     17484     17485     17486
     17474     17484     17485     17487     17474     17484     17485     17488
     17474     17484     17489     17490     17474     17484     17489     17491
     17474     17484     17489     17492     17475     17474     17472     17495
     17475     17474     17476     17477     17475     17474     17476     17478
     17475     17474     17476     17479     17475     17474     17484     17482
     17475     17474     17484     17485     17475     17474     17484     17489
     17476     17474     17472     17495     17476     17474     17484     17482
     17476     17474     17484     17485     17476     17474     17484     17489
     17476     17479     17482     17483     17476     17479     17482     17484
     17476     17479     17482     17508     17477     17476     17474     17484
     17477     17476     17479     17480     17477     17476     17479     17481
     17477     17476     17479     17482     17478     17476     17474     17484
     17478     17476     17479     17480     17478     17476     17479     17481
     17478     17476     17479     17482     17479     17476     17474     17484
     17479     17482     17484     17485     17479     17482     17484     17489
     17479     17482     17508     17509     17479     17482     17508     17510
     17479     17482     17508     17514     17480     17479     17482     17483
     17480     17479     17482     17484     17480     17479     17482     17508
     17481     17479     17482     17483     17481     17479     17482     17484
     17481     17479     17482     17508     17482     17484     17485     17486
     17482     17484     17485     17487     17482     17484     17485     17488
     17482     17484     17489     17490     17482     17484     17489     17491
     17482     17484     17489     17492     17482     17508     17510     17511
     17482     17508     17510     17512     17482     17508     17510     17513
     17482     17508     17514     17515     17482     17508     17514     17516
     17482     17508     17514     17517     17483     17482     17484     17485
     17483     17482     17484     17489     17483     17482     17508     17509
     17483     17482     17508     17510     17483     17482     17508     17514
     17484     17474     17472     17495     17484     17482     17508     17509
     17484     17482     17508     17510     17484     17482     17508     17514
     17484     17489     17492     17493     17484     17489     17492     17494
     17484     17489     17492     17495     17485     17484     17482     17508
     17485     17484     17489     17490     17485     17484     17489     17491
     17485     17484     17489     17492     17486     17485     17484     17489
     17487     17485     17484     17489     17488     17485     17484     17489
     17489     17484     17482     17508     17489     17492     17495     17496
     17489     17492     17495     17497     17490     17489     17492     17493
     17490     17489     17492     17494     17490     17489     17492     17495
     17491     17489     17492     17493     17491     17489     17492     17494
     17491     17489     17492     17495     17492     17495     17497     17498
     17492     17495     17497     17502     17493     17492     17495     17496
     17493     17492     17495     17497     17494     17492     17495     17496
     17494     17492     17495     17497     17495     17497     17498     17499
     17495     17497     17498     17500     17495     17497     17498     17501
     17495     17497     17502     17503     17495     17497     17502     17504
     17495     17497     17502     17505     17496     17495     17497     17498
     17496     17495     17497     17502     17497     17502     17505     17506
     17497     17502     17505     17507     17498     17497     17502     17503
     17498     17497     17502     17504     17498     17497     17502     17505
     17499     17498     17497     17502     17500     17498     17497     17502
     17501     17498     17497     17502     17503     17502     17505     17506
     17503     17502     17505     17507     17504     17502     17505     17506
     17504     17502     17505     17507     17508     17514     17517     17518
     17508     17514     17517     17519     17508     17514     17517     17520
     17509     17508     17510     17511     17509     17508     17510     17512
     17509     17508     17510     17513     17509     17508     17514     17515
     17509     17508     17514     17516     17509     17508     17514     17517
     17510     17508     17514     17515     17510     17508     17514     17516
     17510     17508     17514     17517     17511     17510     17508     17514
     17512     17510     17508     17514     17513     17510     17508     17514
     17514     17517     17520     17521     17514     17517     17520     17522
     17514     17517     17520     17523     17515     17514     17517     17518
     17515     17514     17517     17519     17515     17514     17517     17520
     17516     17514     17517     17518     17516     17514     17517     17519
     17516     17514     17517     17520     17517     17520     17523     17524
     17517     17520     17523     17525     17517     17520     17523     17529
     17518     17517     17520     17521     17518     17517     17520     17522
     17518     17517     17520     17523     17519     17517     17520     17521
     17519     17517     17520     17522     17519     17517     17520     17523
     17520     17523     17525     17526     17520     17523     17525     17527
     17520     17523     17525     17528     17520     17523     17529     17530
     17520     17523     17529     17531     17520     17523     17529     17532
     17521     17520     17523     17524     17521     17520     17523     17525
     17521     17520     17523     17529     17522     17520     17523     17524
     17522     17520     17523     17525     17522     17520     17523     17529
     17524     17523     17525     17526     17524     17523     17525     17527
     17524     17523     17525     17528     17524     17523     17529     17530
     17524     17523     17529     17531     17524     17523     17529     17532
     17525     17523     17529     17530     17525     17523     17529     17531
     17525     17523     17529     17532     17526     17525     17523     17529
     17527     17525     17523     17529     17528     17525     17523     17529
     17533     17537     17540     17541     17533     17537     17540     17542
     17533     17537     17540     17546     17534     17533     17537     17538
     17534     17533     17537     17539     17534     17533     17537     17540
     17535     17533     17537     17538     17535     17533     17537     17539
     17535     17533     17537     17540     17536     17533     17537     17538
     17536     17533     17537     17539     17536     17533     17537     17540
     17537     17540     17546     17543     17538     17537     17540     17541
     17538     17537     17540     17542     17538     17537     17540     17546
     17539     17537     17540     17541     17539     17537     17540     17542
     17539     17537     17540     17546     17540     17546     17543     17544
     17540     17546     17543     17545     17540     17546     17543     17547
     17541     17540     17546     17543     17542     17540     17546     17543
     17543     17547     17548     17549     17543     17547     17548     17550
     17543     17547     17548     17551     17544     17543     17547     17548
     17545     17543     17547     17548     17546     17543     17547     17548
     17547     17548     17551     17552     17547     17548     17551     17553
     17547     17548     17551     17559     17548     17551     17553     17554
     17548     17551     17559     17560     17548     17551     17559     17561
     17548     17551     17559     17562     17549     17548     17551     17552
     17549     17548     17551     17553     17549     17548     17551     17559
     17550     17548     17551     17552     17550     17548     17551     17553
     17550     17548     17551     17559     17551     17553     17554     17555
     17551     17553     17554     17556     17551     17559     17562     17563
     17552     17551     17553     17554     17552     17551     17559     17560
     17552     17551     17559     17561     17552     17551     17559     17562
     17553     17551     17559     17560     17553     17551     17559     17561
     17553     17551     17559     17562     17553     17554     17556     17557
     17553     17554     17556     17558     17553     17554     17556     17568
     17554     17553     17551     17559     17554     17556     17568     17569
     17554     17556     17568     17570     17554     17556     17568     17571
     17555     17554     17556     17557     17555     17554     17556     17558
     17555     17554     17556     17568     17556     17568     17571     17572
     17556     17568     17571     17573     17556     17568     17571     17574
     17557     17556     17568     17569     17557     17556     17568     17570
     17557     17556     17568     17571     17558     17556     17568     17569
     17558     17556     17568     17570     17558     17556     17568     17571
     17559     17562     17563     17564     17559     17562     17563     17565
     17560     17559     17562     17563     17561     17559     17562     17563
     17562     17563     17565     17566     17562     17563     17565     17567
     17562     17563     17565     17615     17563     17565     17615     17616
     17563     17565     17615     17617     17563     17565     17615     17618
     17564     17563     17565     17566     17564     17563     17565     17567
     17564     17563     17565     17615     17565     17615     17618     17619
     17565     17615     17618     17620     17565     17615     17618     17621
     17566     17565     17615     17616     17566     17565     17615     17617
     17566     17565     17615     17618     17567     17565     17615     17616
     17567     17565     17615     17617     17567     17565     17615     17618
     17568     17571     17574     17575     17568     17571     17574     17576
     17569     17568     17571     17572     17569     17568     17571     17573
     17569     17568     17571     17574     17570     17568     17571     17572
     17570     17568     17571     17573     17570     17568     17571     17574
     17571     17574     17576     17577     17571     17574     17576     17578
     17572     17571     17574     17575     17572     17571     17574     17576
     17573     17571     17574     17575     17573     17571     17574     17576
     17574     17576     17578     17579     17574     17576     17578     17580
     17574     17576     17578     17581     17575     17574     17576     17577
     17575     17574     17576     17578     17576     17578     17581     17582
     17576     17578     17581     17583     17577     17576     17578     17579
     17577     17576     17578     17580     17577     17576     17578     17581
     17578     17581     17583     17584     17578     17581     17583     17585
     17579     17578     17581     17582     17579     17578     17581     17583
     17580     17578     17581     17582     17580     17578     17581     17583
     17581     17583     17585     17586     17581     17583     17585     17587
     17581     17583     17585     17588     17582     17581     17583     17584
     17582     17581     17583     17585     17583     17585     17588     17589
     17583     17585     17588     17590     17584     17583     17585     17586
     17584     17583     17585     17587     17584     17583     17585     17588
     17585     17588     17590     17591     17585     17588     17590     17592
     17586     17585     17588     17589     17586     17585     17588     17590
     17587     17585     17588     17589     17587     17585     17588     17590
     17588     17590     17592     17593     17588     17590     17592     17594
     17588     17590     17592     17595     17589     17588     17590     17591
     17589     17588     17590     17592     17590     17592     17595     17596
     17590     17592     17595     17597     17591     17590     17592     17593
     17591     17590     17592     17594     17591     17590     17592     17595
     17592     17595     17597     17598     17592     17595     17597     17599
     17593     17592     17595     17596     17593     17592     17595     17597
     17594     17592     17595     17596     17594     17592     17595     17597
     17595     17597     17599     17600     17595     17597     17599     17601
     17595     17597     17599     17602     17596     17595     17597     17598
     17596     17595     17597     17599     17597     17599     17602     17603
     17597     17599     17602     17604     17597     17599     17602     17605
     17598     17597     17599     17600     17598     17597     17599     17601
     17598     17597     17599     17602     17599     17602     17605     17606
     17599     17602     17605     17607     17599     17602     17605     17608
     17600     17599     17602     17603     17600     17599     17602     17604
     17600     17599     17602     17605     17601     17599     17602     17603
     17601     17599     17602     17604     17601     17599     17602     17605
     17602     17605     17608     17609     17602     17605     17608     17610
     17602     17605     17608     17611     17603     17602     17605     17606
     17603     17602     17605     17607     17603     17602     17605     17608
     17604     17602     17605     17606     17604     17602     17605     17607
     17604     17602     17605     17608     17605     17608     17611     17612
     17605     17608     17611     17613     17605     17608     17611     17614
     17606     17605     17608     17609     17606     17605     17608     17610
     17606     17605     17608     17611     17607     17605     17608     17609
     17607     17605     17608     17610     17607     17605     17608     17611
     17609     17608     17611     17612     17609     17608     17611     17613
     17609     17608     17611     17614     17610     17608     17611     17612
     17610     17608     17611     17613     17610     17608     17611     17614
     17615     17618     17621     17622     17615     17618     17621     17623
     17615     17618     17621     17624     17616     17615     17618     17619
     17616     17615     17618     17620     17616     17615     17618     17621
     17617     17615     17618     17619     17617     17615     17618     17620
     17617     17615     17618     17621     17618     17621     17624     17625
     17618     17621     17624     17626     17618     17621     17624     17627
     17619     17618     17621     17622     17619     17618     17621     17623
     17619     17618     17621     17624     17620     17618     17621     17622
     17620     17618     17621     17623     17620     17618     17621     17624
     17621     17624     17627     17628     17621     17624     17627     17629
     17621     17624     17627     17630     17622     17621     17624     17625
     17622     17621     17624     17626     17622     17621     17624     17627
     17623     17621     17624     17625     17623     17621     17624     17626
     17623     17621     17624     17627     17624     17627     17630     17631
     17624     17627     17630     17632     17624     17627     17630     17633
     17625     17624     17627     17628     17625     17624     17627     17629
     17625     17624     17627     17630     17626     17624     17627     17628
     17626     17624     17627     17629     17626     17624     17627     17630
     17627     17630     17633     17634     17627     17630     17633     17635
     17627     17630     17633     17636     17628     17627     17630     17631
     17628     17627     17630     17632     17628     17627     17630     17633
     17629     17627     17630     17631     17629     17627     17630     17632
     17629     17627     17630     17633     17630     17633     17636     17637
     17630     17633     17636     17638     17630     17633     17636     17639
     17631     17630     17633     17634     17631     17630     17633     17635
     17631     17630     17633     17636     17632     17630     17633     17634
     17632     17630     17633     17635     17632     17630     17633     17636
     17633     17636     17639     17640     17633     17636     17639     17641
     17633     17636     17639     17642     17634     17633     17636     17637
     17634     17633     17636     17638     17634     17633     17636     17639
     17635     17633     17636     17637     17635     17633     17636     17638
     17635     17633     17636     17639     17636     17639     17642     17643
     17636     17639     17642     17644     17636     17639     17642     17645
     17637     17636     17639     17640     17637     17636     17639     17641
     17637     17636     17639     17642     17638     17636     17639     17640
     17638     17636     17639     17641     17638     17636     17639     17642
     17639     17642     17645     17646     17639     17642     17645     17647
     17639     17642     17645     17648     17640     17639     17642     17643
     17640     17639     17642     17644     17640     17639     17642     17645
     17641     17639     17642     17643     17641     17639     17642     17644
     17641     17639     17642     17645     17642     17645     17648     17649
     17642     17645     17648     17650     17642     17645     17648     17651
     17643     17642     17645     17646     17643     17642     17645     17647
     17643     17642     17645     17648     17644     17642     17645     17646
     17644     17642     17645     17647     17644     17642     17645     17648
     17645     17648     17651     17652     17645     17648     17651     17653
     17645     17648     17651     17654     17646     17645     17648     17649
     17646     17645     17648     17650     17646     17645     17648     17651
     17647     17645     17648     17649     17647     17645     17648     17650
     17647     17645     17648     17651     17648     17651     17654     17655
     17648     17651     17654     17656     17648     17651     17654     17657
     17649     17648     17651     17652     17649     17648     17651     17653
     17649     17648     17651     17654     17650     17648     17651     17652
     17650     17648     17651     17653     17650     17648     17651     17654
     17651     17654     17657     17658     17651     17654     17657     17659
     17651     17654     17657     17660     17652     17651     17654     17655
     17652     17651     17654     17656     17652     17651     17654     17657
     17653     17651     17654     17655     17653     17651     17654     17656
     17653     17651     17654     17657     17654     17657     17660     17661
     17654     17657     17660     17662     17654     17657     17660     17663
     17655     17654     17657     17658     17655     17654     17657     17659
     17655     17654     17657     17660     17656     17654     17657     17658
     17656     17654     17657     17659     17656     17654     17657     17660
     17658     17657     17660     17661     17658     17657     17660     17662
     17658     17657     17660     17663     17659     17657     17660     17661
     17659     17657     17660     17662     17659     17657     17660     17663
     17664     17668     17671     17672     17664     17668     17671     17673
     17664     17668     17671     17677     17665     17664     17668     17669
     17665     17664     17668     17670     17665     17664     17668     17671
     17666     17664     17668     17669     17666     17664     17668     17670
     17666     17664     17668     17671     17667     17664     17668     17669
     17667     17664     17668     17670     17667     17664     17668     17671
     17668     17671     17677     17674     17669     17668     17671     17672
     17669     17668     17671     17673     17669     17668     17671     17677
     17670     17668     17671     17672     17670     17668     17671     17673
     17670     17668     17671     17677     17671     17677     17674     17675
     17671     17677     17674     17676     17671     17677     17674     17678
     17672     17671     17677     17674     17673     17671     17677     17674
     17674     17678     17679     17680     17674     17678     17679     17681
     17674     17678     17679     17682     17675     17674     17678     17679
     17676     17674     17678     17679     17677     17674     17678     17679
     17678     17679     17682     17683     17678     17679     17682     17684
     17678     17679     17682     17690     17679     17682     17684     17685
     17679     17682     17690     17691     17679     17682     17690     17692
     17679     17682     17690     17693     17680     17679     17682     17683
     17680     17679     17682     17684     17680     17679     17682     17690
     17681     17679     17682     17683     17681     17679     17682     17684
     17681     17679     17682     17690     17682     17684     17685     17686
     17682     17684     17685     17687     17682     17690     17693     17694
     17683     17682     17684     17685     17683     17682     17690     17691
     17683     17682     17690     17692     17683     17682     17690     17693
     17684     17682     17690     17691     17684     17682     17690     17692
     17684     17682     17690     17693     17684     17685     17687     17688
     17684     17685     17687     17689     17684     17685     17687     17699
     17685     17684     17682     17690     17685     17687     17699     17700
     17685     17687     17699     17701     17685     17687     17699     17702
     17686     17685     17687     17688     17686     17685     17687     17689
     17686     17685     17687     17699     17687     17699     17702     17703
     17687     17699     17702     17704     17687     17699     17702     17705
     17688     17687     17699     17700     17688     17687     17699     17701
     17688     17687     17699     17702     17689     17687     17699     17700
     17689     17687     17699     17701     17689     17687     17699     17702
     17690     17693     17694     17695     17690     17693     17694     17696
     17691     17690     17693     17694     17692     17690     17693     17694
     17693     17694     17696     17697     17693     17694     17696     17698
     17693     17694     17696     17746     17694     17696     17746     17747
     17694     17696     17746     17748     17694     17696     17746     17749
     17695     17694     17696     17697     17695     17694     17696     17698
     17695     17694     17696     17746     17696     17746     17749     17750
     17696     17746     17749     17751     17696     17746     17749     17752
     17697     17696     17746     17747     17697     17696     17746     17748
     17697     17696     17746     17749     17698     17696     17746     17747
     17698     17696     17746     17748     17698     17696     17746     17749
     17699     17702     17705     17706     17699     17702     17705     17707
     17699     17702     17705     17708     17700     17699     17702     17703
     17700     17699     17702     17704     17700     17699     17702     17705
     17701     17699     17702     17703     17701     17699     17702     17704
     17701     17699     17702     17705     17702     17705     17708     17709
     17702     17705     17708     17710     17702     17705     17708     17711
     17703     17702     17705     17706     17703     17702     17705     17707
     17703     17702     17705     17708     17704     17702     17705     17706
     17704     17702     17705     17707     17704     17702     17705     17708
     17705     17708     17711     17712     17705     17708     17711     17713
     17705     17708     17711     17714     17706     17705     17708     17709
     17706     17705     17708     17710     17706     17705     17708     17711
     17707     17705     17708     17709     17707     17705     17708     17710
     17707     17705     17708     17711     17708     17711     17714     17715
     17708     17711     17714     17716     17708     17711     17714     17717
     17709     17708     17711     17712     17709     17708     17711     17713
     17709     17708     17711     17714     17710     17708     17711     17712
     17710     17708     17711     17713     17710     17708     17711     17714
     17711     17714     17717     17718     17711     17714     17717     17719
     17712     17711     17714     17715     17712     17711     17714     17716
     17712     17711     17714     17717     17713     17711     17714     17715
     17713     17711     17714     17716     17713     17711     17714     17717
     17714     17717     17719     17720     17714     17717     17719     17721
     17715     17714     17717     17718     17715     17714     17717     17719
     17716     17714     17717     17718     17716     17714     17717     17719
     17717     17719     17721     17722     17717     17719     17721     17723
     17717     17719     17721     17724     17718     17717     17719     17720
     17718     17717     17719     17721     17719     17721     17724     17725
     17719     17721     17724     17726     17719     17721     17724     17727
     17720     17719     17721     17722     17720     17719     17721     17723
     17720     17719     17721     17724     17721     17724     17727     17728
     17721     17724     17727     17729     17721     17724     17727     17730
     17722     17721     17724     17725     17722     17721     17724     17726
     17722     17721     17724     17727     17723     17721     17724     17725
     17723     17721     17724     17726     17723     17721     17724     17727
     17724     17727     17730     17731     17724     17727     17730     17732
     17724     17727     17730     17733     17725     17724     17727     17728
     17725     17724     17727     17729     17725     17724     17727     17730
     17726     17724     17727     17728     17726     17724     17727     17729
     17726     17724     17727     17730     17727     17730     17733     17734
     17727     17730     17733     17735     17727     17730     17733     17736
     17728     17727     17730     17731     17728     17727     17730     17732
     17728     17727     17730     17733     17729     17727     17730     17731
     17729     17727     17730     17732     17729     17727     17730     17733
     17730     17733     17736     17737     17730     17733     17736     17738
     17730     17733     17736     17739     17731     17730     17733     17734
     17731     17730     17733     17735     17731     17730     17733     17736
     17732     17730     17733     17734     17732     17730     17733     17735
     17732     17730     17733     17736     17733     17736     17739     17740
     17733     17736     17739     17741     17733     17736     17739     17742
     17734     17733     17736     17737     17734     17733     17736     17738
     17734     17733     17736     17739     17735     17733     17736     17737
     17735     17733     17736     17738     17735     17733     17736     17739
     17736     17739     17742     17743     17736     17739     17742     17744
     17736     17739     17742     17745     17737     17736     17739     17740
     17737     17736     17739     17741     17737     17736     17739     17742
     17738     17736     17739     17740     17738     17736     17739     17741
     17738     17736     17739     17742     17740     17739     17742     17743
     17740     17739     17742     17744     17740     17739     17742     17745
     17741     17739     17742     17743     17741     17739     17742     17744
     17741     17739     17742     17745     17746     17749     17752     17753
     17746     17749     17752     17754     17746     17749     17752     17755
     17747     17746     17749     17750     17747     17746     17749     17751
     17747     17746     17749     17752     17748     17746     17749     17750
     17748     17746     17749     17751     17748     17746     17749     17752
     17749     17752     17755     17756     17749     17752     17755     17757
     17749     17752     17755     17758     17750     17749     17752     17753
     17750     17749     17752     17754     17750     17749     17752     17755
     17751     17749     17752     17753     17751     17749     17752     17754
     17751     17749     17752     17755     17752     17755     17758     17759
     17752     17755     17758     17760     17752     17755     17758     17761
     17753     17752     17755     17756     17753     17752     17755     17757
     17753     17752     17755     17758     17754     17752     17755     17756
     17754     17752     17755     17757     17754     17752     17755     17758
     17755     17758     17761     17762     17755     17758     17761     17763
     17755     17758     17761     17764     17756     17755     17758     17759
     17756     17755     17758     17760     17756     17755     17758     17761
     17757     17755     17758     17759     17757     17755     17758     17760
     17757     17755     17758     17761     17758     17761     17764     17765
     17758     17761     17764     17766     17758     17761     17764     17767
     17759     17758     17761     17762     17759     17758     17761     17763
     17759     17758     17761     17764     17760     17758     17761     17762
     17760     17758     17761     17763     17760     17758     17761     17764
     17761     17764     17767     17768     17761     17764     17767     17769
     17761     17764     17767     17770     17762     17761     17764     17765
     17762     17761     17764     17766     17762     17761     17764     17767
     17763     17761     17764     17765     17763     17761     17764     17766
     17763     17761     17764     17767     17764     17767     17770     17771
     17764     17767     17770     17772     17764     17767     17770     17773
     17765     17764     17767     17768     17765     17764     17767     17769
     17765     17764     17767     17770     17766     17764     17767     17768
     17766     17764     17767     17769     17766     17764     17767     17770
     17767     17770     17773     17774     17767     17770     17773     17775
     17767     17770     17773     17776     17768     17767     17770     17771
     17768     17767     17770     17772     17768     17767     17770     17773
     17769     17767     17770     17771     17769     17767     17770     17772
     17769     17767     17770     17773     17770     17773     17776     17777
     17770     17773     17776     17778     17770     17773     17776     17779
     17771     17770     17773     17774     17771     17770     17773     17775
     17771     17770     17773     17776     17772     17770     17773     17774
     17772     17770     17773     17775     17772     17770     17773     17776
     17773     17776     17779     17780     17773     17776     17779     17781
     17773     17776     17779     17782     17774     17773     17776     17777
     17774     17773     17776     17778     17774     17773     17776     17779
     17775     17773     17776     17777     17775     17773     17776     17778
     17775     17773     17776     17779     17776     17779     17782     17783
     17776     17779     17782     17784     17776     17779     17782     17785
     17777     17776     17779     17780     17777     17776     17779     17781
     17777     17776     17779     17782     17778     17776     17779     17780
     17778     17776     17779     17781     17778     17776     17779     17782
     17779     17782     17785     17786     17779     17782     17785     17787
     17779     17782     17785     17788     17780     17779     17782     17783
     17780     17779     17782     17784     17780     17779     17782     17785
     17781     17779     17782     17783     17781     17779     17782     17784
     17781     17779     17782     17785     17782     17785     17788     17789
     17782     17785     17788     17790     17782     17785     17788     17791
     17783     17782     17785     17786     17783     17782     17785     17787
     17783     17782     17785     17788     17784     17782     17785     17786
     17784     17782     17785     17787     17784     17782     17785     17788
     17785     17788     17791     17792     17785     17788     17791     17793
     17785     17788     17791     17794     17786     17785     17788     17789
     17786     17785     17788     17790     17786     17785     17788     17791
     17787     17785     17788     17789     17787     17785     17788     17790
     17787     17785     17788     17791     17789     17788     17791     17792
     17789     17788     17791     17793     17789     17788     17791     17794
     17790     17788     17791     17792     17790     17788     17791     17793
     17790     17788     17791     17794     17795     17796     17811     17812
     17795     17796     17811     17813     17795     17796     17811     17817
     17796     17795     17799     17800     17796     17795     17799     17801
     17796     17795     17799     17802     17796     17795     17803     17804
     17796     17795     17803     17805     17796     17795     17803     17806
     17796     17795     17807     17808     17796     17795     17807     17809
     17796     17795     17807     17810     17796     17811     17817     17814
     17797     17796     17795     17799     17797     17796     17795     17803
     17797     17796     17795     17807     17797     17796     17811     17812
     17797     17796     17811     17813     17797     17796     17811     17817
     17798     17796     17795     17799     17798     17796     17795     17803
     17798     17796     17795     17807     17798     17796     17811     17812
     17798     17796     17811     17813     17798     17796     17811     17817
     17799     17795     17796     17811     17799     17795     17803     17804
     17799     17795     17803     17805     17799     17795     17803     17806
     17799     17795     17807     17808     17799     17795     17807     17809
     17799     17795     17807     17810     17800     17799     17795     17803
     17800     17799     17795     17807     17801     17799     17795     17803
     17801     17799     17795     17807     17802     17799     17795     17803
     17802     17799     17795     17807     17803     17795     17796     17811
     17803     17795     17807     17808     17803     17795     17807     17809
     17803     17795     17807     17810     17804     17803     17795     17807
     17805     17803     17795     17807     17806     17803     17795     17807
     17807     17795     17796     17811     17811     17817     17814     17815
     17811     17817     17814     17816     17811     17817     17814     17818
     17812     17811     17817     17814     17813     17811     17817     17814
     17814     17818     17819     17820     17814     17818     17819     17821
     17814     17818     17819     17822     17815     17814     17818     17819
     17816     17814     17818     17819     17817     17814     17818     17819
     17818     17819     17822     17823     17818     17819     17822     17824
     17818     17819     17822     17830     17819     17822     17824     17825
     17819     17822     17830     17831     17819     17822     17830     17832
     17819     17822     17830     17833     17820     17819     17822     17823
     17820     17819     17822     17824     17820     17819     17822     17830
     17821     17819     17822     17823     17821     17819     17822     17824
     17821     17819     17822     17830     17822     17824     17825     17826
     17822     17824     17825     17827     17822     17830     17833     17834
     17823     17822     17824     17825     17823     17822     17830     17831
     17823     17822     17830     17832     17823     17822     17830     17833
     17824     17822     17830     17831     17824     17822     17830     17832
     17824     17822     17830     17833     17824     17825     17827     17828
     17824     17825     17827     17829     17824     17825     17827     17839
     17825     17824     17822     17830     17825     17827     17839     17840
     17825     17827     17839     17841     17825     17827     17839     17842
     17826     17825     17827     17828     17826     17825     17827     17829
     17826     17825     17827     17839     17827     17839     17842     17843
     17827     17839     17842     17844     17827     17839     17842     17845
     17828     17827     17839     17840     17828     17827     17839     17841
     17828     17827     17839     17842     17829     17827     17839     17840
     17829     17827     17839     17841     17829     17827     17839     17842
     17830     17833     17834     17835     17830     17833     17834     17836
     17831     17830     17833     17834     17832     17830     17833     17834
     17833     17834     17836     17837     17833     17834     17836     17838
     17833     17834     17836     17886     17834     17836     17886     17887
     17834     17836     17886     17888     17834     17836     17886     17889
     17835     17834     17836     17837     17835     17834     17836     17838
     17835     17834     17836     17886     17836     17886     17889     17890
     17836     17886     17889     17891     17836     17886     17889     17892
     17837     17836     17886     17887     17837     17836     17886     17888
     17837     17836     17886     17889     17838     17836     17886     17887
     17838     17836     17886     17888     17838     17836     17886     17889
     17839     17842     17845     17846     17839     17842     17845     17847
     17840     17839     17842     17843     17840     17839     17842     17844
     17840     17839     17842     17845     17841     17839     17842     17843
     17841     17839     17842     17844     17841     17839     17842     17845
     17842     17845     17847     17848     17842     17845     17847     17849
     17843     17842     17845     17846     17843     17842     17845     17847
     17844     17842     17845     17846     17844     17842     17845     17847
     17845     17847     17849     17850     17845     17847     17849     17851
     17845     17847     17849     17852     17846     17845     17847     17848
     17846     17845     17847     17849     17847     17849     17852     17853
     17847     17849     17852     17854     17848     17847     17849     17850
     17848     17847     17849     17851     17848     17847     17849     17852
     17849     17852     17854     17855     17849     17852     17854     17856
     17850     17849     17852     17853     17850     17849     17852     17854
     17851     17849     17852     17853     17851     17849     17852     17854
     17852     17854     17856     17857     17852     17854     17856     17858
     17852     17854     17856     17859     17853     17852     17854     17855
     17853     17852     17854     17856     17854     17856     17859     17860
     17854     17856     17859     17861     17855     17854     17856     17857
     17855     17854     17856     17858     17855     17854     17856     17859
     17856     17859     17861     17862     17856     17859     17861     17863
     17857     17856     17859     17860     17857     17856     17859     17861
     17858     17856     17859     17860     17858     17856     17859     17861
     17859     17861     17863     17864     17859     17861     17863     17865
     17859     17861     17863     17866     17860     17859     17861     17862
     17860     17859     17861     17863     17861     17863     17866     17867
     17861     17863     17866     17868     17862     17861     17863     17864
     17862     17861     17863     17865     17862     17861     17863     17866
     17863     17866     17868     17869     17863     17866     17868     17870
     17864     17863     17866     17867     17864     17863     17866     17868
     17865     17863     17866     17867     17865     17863     17866     17868
     17866     17868     17870     17871     17866     17868     17870     17872
     17866     17868     17870     17873     17867     17866     17868     17869
     17867     17866     17868     17870     17868     17870     17873     17874
     17868     17870     17873     17875     17868     17870     17873     17876
     17869     17868     17870     17871     17869     17868     17870     17872
     17869     17868     17870     17873     17870     17873     17876     17877
     17870     17873     17876     17878     17870     17873     17876     17879
     17871     17870     17873     17874     17871     17870     17873     17875
     17871     17870     17873     17876     17872     17870     17873     17874
     17872     17870     17873     17875     17872     17870     17873     17876
     17873     17876     17879     17880     17873     17876     17879     17881
     17873     17876     17879     17882     17874     17873     17876     17877
     17874     17873     17876     17878     17874     17873     17876     17879
     17875     17873     17876     17877     17875     17873     17876     17878
     17875     17873     17876     17879     17876     17879     17882     17883
     17876     17879     17882     17884     17876     17879     17882     17885
     17877     17876     17879     17880     17877     17876     17879     17881
     17877     17876     17879     17882     17878     17876     17879     17880
     17878     17876     17879     17881     17878     17876     17879     17882
     17880     17879     17882     17883     17880     17879     17882     17884
     17880     17879     17882     17885     17881     17879     17882     17883
     17881     17879     17882     17884     17881     17879     17882     17885
     17886     17889     17892     17893     17886     17889     17892     17894
     17886     17889     17892     17895     17887     17886     17889     17890
     17887     17886     17889     17891     17887     17886     17889     17892
     17888     17886     17889     17890     17888     17886     17889     17891
     17888     17886     17889     17892     17889     17892     17895     17896
     17889     17892     17895     17897     17889     17892     17895     17898
     17890     17889     17892     17893     17890     17889     17892     17894
     17890     17889     17892     17895     17891     17889     17892     17893
     17891     17889     17892     17894     17891     17889     17892     17895
     17892     17895     17898     17899     17892     17895     17898     17900
     17892     17895     17898     17901     17893     17892     17895     17896
     17893     17892     17895     17897     17893     17892     17895     17898
     17894     17892     17895     17896     17894     17892     17895     17897
     17894     17892     17895     17898     17895     17898     17901     17902
     17895     17898     17901     17903     17895     17898     17901     17904
     17896     17895     17898     17899     17896     17895     17898     17900
     17896     17895     17898     17901     17897     17895     17898     17899
     17897     17895     17898     17900     17897     17895     17898     17901
     17898     17901     17904     17905     17898     17901     17904     17906
     17898     17901     17904     17907     17899     17898     17901     17902
     17899     17898     17901     17903     17899     17898     17901     17904
     17900     17898     17901     17902     17900     17898     17901     17903
     17900     17898     17901     17904     17901     17904     17907     17908
     17901     17904     17907     17909     17901     17904     17907     17910
     17902     17901     17904     17905     17902     17901     17904     17906
     17902     17901     17904     17907     17903     17901     17904     17905
     17903     17901     17904     17906     17903     17901     17904     17907
     17904     17907     17910     17911     17904     17907     17910     17912
     17904     17907     17910     17913     17905     17904     17907     17908
     17905     17904     17907     17909     17905     17904     17907     17910
     17906     17904     17907     17908     17906     17904     17907     17909
     17906     17904     17907     17910     17907     17910     17913     17914
     17907     17910     17913     17915     17907     17910     17913     17916
     17908     17907     17910     17911     17908     17907     17910     17912
     17908     17907     17910     17913     17909     17907     17910     17911
     17909     17907     17910     17912     17909     17907     17910     17913
     17910     17913     17916     17917     17910     17913     17916     17918
     17910     17913     17916     17919     17911     17910     17913     17914
     17911     17910     17913     17915     17911     17910     17913     17916
     17912     17910     17913     17914     17912     17910     17913     17915
     17912     17910     17913     17916     17913     17916     17919     17920
     17913     17916     17919     17921     17913     17916     17919     17922
     17914     17913     17916     17917     17914     17913     17916     17918
     17914     17913     17916     17919     17915     17913     17916     17917
     17915     17913     17916     17918     17915     17913     17916     17919
     17916     17919     17922     17923     17916     17919     17922     17924
     17916     17919     17922     17925     17917     17916     17919     17920
     17917     17916     17919     17921     17917     17916     17919     17922
     17918     17916     17919     17920     17918     17916     17919     17921
     17918     17916     17919     17922     17919     17922     17925     17926
     17919     17922     17925     17927     17919     17922     17925     17928
     17920     17919     17922     17923     17920     17919     17922     17924
     17920     17919     17922     17925     17921     17919     17922     17923
     17921     17919     17922     17924     17921     17919     17922     17925
     17922     17925     17928     17929     17922     17925     17928     17930
     17922     17925     17928     17931     17923     17922     17925     17926
     17923     17922     17925     17927     17923     17922     17925     17928
     17924     17922     17925     17926     17924     17922     17925     17927
     17924     17922     17925     17928     17925     17928     17931     17932
     17925     17928     17931     17933     17925     17928     17931     17934
     17926     17925     17928     17929     17926     17925     17928     17930
     17926     17925     17928     17931     17927     17925     17928     17929
     17927     17925     17928     17930     17927     17925     17928     17931
     17929     17928     17931     17932     17929     17928     17931     17933
     17929     17928     17931     17934     17930     17928     17931     17932
     17930     17928     17931     17933     17930     17928     17931     17934
     17935     17936     17951     17952     17935     17936     17951     17953
     17935     17936     17951     17957     17936     17935     17939     17940
     17936     17935     17939     17941     17936     17935     17939     17942
     17936     17935     17943     17944     17936     17935     17943     17945
     17936     17935     17943     17946     17936     17935     17947     17948
     17936     17935     17947     17949     17936     17935     17947     17950
     17936     17951     17957     17954     17937     17936     17935     17939
     17937     17936     17935     17943     17937     17936     17935     17947
     17937     17936     17951     17952     17937     17936     17951     17953
     17937     17936     17951     17957     17938     17936     17935     17939
     17938     17936     17935     17943     17938     17936     17935     17947
     17938     17936     17951     17952     17938     17936     17951     17953
     17938     17936     17951     17957     17939     17935     17936     17951
     17939     17935     17943     17944     17939     17935     17943     17945
     17939     17935     17943     17946     17939     17935     17947     17948
     17939     17935     17947     17949     17939     17935     17947     17950
     17940     17939     17935     17943     17940     17939     17935     17947
     17941     17939     17935     17943     17941     17939     17935     17947
     17942     17939     17935     17943     17942     17939     17935     17947
     17943     17935     17936     17951     17943     17935     17947     17948
     17943     17935     17947     17949     17943     17935     17947     17950
     17944     17943     17935     17947     17945     17943     17935     17947
     17946     17943     17935     17947     17947     17935     17936     17951
     17951     17957     17954     17955     17951     17957     17954     17956
     17951     17957     17954     17958     17952     17951     17957     17954
     17953     17951     17957     17954     17954     17958     17959     17960
     17954     17958     17959     17961     17954     17958     17959     17962
     17955     17954     17958     17959     17956     17954     17958     17959
     17957     17954     17958     17959     17958     17959     17962     17963
     17958     17959     17962     17964     17958     17959     17962     17970
     17959     17962     17964     17965     17959     17962     17970     17971
     17959     17962     17970     17972     17959     17962     17970     17973
     17960     17959     17962     17963     17960     17959     17962     17964
     17960     17959     17962     17970     17961     17959     17962     17963
     17961     17959     17962     17964     17961     17959     17962     17970
     17962     17964     17965     17966     17962     17964     17965     17967
     17962     17970     17973     17974     17963     17962     17964     17965
     17963     17962     17970     17971     17963     17962     17970     17972
     17963     17962     17970     17973     17964     17962     17970     17971
     17964     17962     17970     17972     17964     17962     17970     17973
     17964     17965     17967     17968     17964     17965     17967     17969
     17964     17965     17967     17979     17965     17964     17962     17970
     17965     17967     17979     17980     17965     17967     17979     17981
     17965     17967     17979     17982     17966     17965     17967     17968
     17966     17965     17967     17969     17966     17965     17967     17979
     17967     17979     17982     17983     17967     17979     17982     17984
     17967     17979     17982     17985     17968     17967     17979     17980
     17968     17967     17979     17981     17968     17967     17979     17982
     17969     17967     17979     17980     17969     17967     17979     17981
     17969     17967     17979     17982     17970     17973     17974     17975
     17970     17973     17974     17976     17971     17970     17973     17974
     17972     17970     17973     17974     17973     17974     17976     17977
     17973     17974     17976     17978     17973     17974     17976     18026
     17974     17976     18026     18027     17974     17976     18026     18028
     17974     17976     18026     18029     17975     17974     17976     17977
     17975     17974     17976     17978     17975     17974     17976     18026
     17976     18026     18029     18030     17976     18026     18029     18031
     17976     18026     18029     18032     17977     17976     18026     18027
     17977     17976     18026     18028     17977     17976     18026     18029
     17978     17976     18026     18027     17978     17976     18026     18028
     17978     17976     18026     18029     17979     17982     17985     17986
     17979     17982     17985     17987     17980     17979     17982     17983
     17980     17979     17982     17984     17980     17979     17982     17985
     17981     17979     17982     17983     17981     17979     17982     17984
     17981     17979     17982     17985     17982     17985     17987     17988
     17982     17985     17987     17989     17983     17982     17985     17986
     17983     17982     17985     17987     17984     17982     17985     17986
     17984     17982     17985     17987     17985     17987     17989     17990
     17985     17987     17989     17991     17985     17987     17989     17992
     17986     17985     17987     17988     17986     17985     17987     17989
     17987     17989     17992     17993     17987     17989     17992     17994
     17988     17987     17989     17990     17988     17987     17989     17991
     17988     17987     17989     17992     17989     17992     17994     17995
     17989     17992     17994     17996     17990     17989     17992     17993
     17990     17989     17992     17994     17991     17989     17992     17993
     17991     17989     17992     17994     17992     17994     17996     17997
     17992     17994     17996     17998     17992     17994     17996     17999
     17993     17992     17994     17995     17993     17992     17994     17996
     17994     17996     17999     18000     17994     17996     17999     18001
     17995     17994     17996     17997     17995     17994     17996     17998
     17995     17994     17996     17999     17996     17999     18001     18002
     17996     17999     18001     18003     17997     17996     17999     18000
     17997     17996     17999     18001     17998     17996     17999     18000
     17998     17996     17999     18001     17999     18001     18003     18004
     17999     18001     18003     18005     17999     18001     18003     18006
     18000     17999     18001     18002     18000     17999     18001     18003
     18001     18003     18006     18007     18001     18003     18006     18008
     18002     18001     18003     18004     18002     18001     18003     18005
     18002     18001     18003     18006     18003     18006     18008     18009
     18003     18006     18008     18010     18004     18003     18006     18007
     18004     18003     18006     18008     18005     18003     18006     18007
     18005     18003     18006     18008     18006     18008     18010     18011
     18006     18008     18010     18012     18006     18008     18010     18013
     18007     18006     18008     18009     18007     18006     18008     18010
     18008     18010     18013     18014     18008     18010     18013     18015
     18008     18010     18013     18016     18009     18008     18010     18011
     18009     18008     18010     18012     18009     18008     18010     18013
     18010     18013     18016     18017     18010     18013     18016     18018
     18010     18013     18016     18019     18011     18010     18013     18014
     18011     18010     18013     18015     18011     18010     18013     18016
     18012     18010     18013     18014     18012     18010     18013     18015
     18012     18010     18013     18016     18013     18016     18019     18020
     18013     18016     18019     18021     18013     18016     18019     18022
     18014     18013     18016     18017     18014     18013     18016     18018
     18014     18013     18016     18019     18015     18013     18016     18017
     18015     18013     18016     18018     18015     18013     18016     18019
     18016     18019     18022     18023     18016     18019     18022     18024
     18016     18019     18022     18025     18017     18016     18019     18020
     18017     18016     18019     18021     18017     18016     18019     18022
     18018     18016     18019     18020     18018     18016     18019     18021
     18018     18016     18019     18022     18020     18019     18022     18023
     18020     18019     18022     18024     18020     18019     18022     18025
     18021     18019     18022     18023     18021     18019     18022     18024
     18021     18019     18022     18025     18026     18029     18032     18033
     18026     18029     18032     18034     18026     18029     18032     18035
     18027     18026     18029     18030     18027     18026     18029     18031
     18027     18026     18029     18032     18028     18026     18029     18030
     18028     18026     18029     18031     18028     18026     18029     18032
     18029     18032     18035     18036     18029     18032     18035     18037
     18029     18032     18035     18038     18030     18029     18032     18033
     18030     18029     18032     18034     18030     18029     18032     18035
     18031     18029     18032     18033     18031     18029     18032     18034
     18031     18029     18032     18035     18032     18035     18038     18039
     18032     18035     18038     18040     18032     18035     18038     18041
     18033     18032     18035     18036     18033     18032     18035     18037
     18033     18032     18035     18038     18034     18032     18035     18036
     18034     18032     18035     18037     18034     18032     18035     18038
     18035     18038     18041     18042     18035     18038     18041     18043
     18035     18038     18041     18044     18036     18035     18038     18039
     18036     18035     18038     18040     18036     18035     18038     18041
     18037     18035     18038     18039     18037     18035     18038     18040
     18037     18035     18038     18041     18038     18041     18044     18045
     18038     18041     18044     18046     18038     18041     18044     18047
     18039     18038     18041     18042     18039     18038     18041     18043
     18039     18038     18041     18044     18040     18038     18041     18042
     18040     18038     18041     18043     18040     18038     18041     18044
     18041     18044     18047     18048     18041     18044     18047     18049
     18041     18044     18047     18050     18042     18041     18044     18045
     18042     18041     18044     18046     18042     18041     18044     18047
     18043     18041     18044     18045     18043     18041     18044     18046
     18043     18041     18044     18047     18044     18047     18050     18051
     18044     18047     18050     18052     18044     18047     18050     18053
     18045     18044     18047     18048     18045     18044     18047     18049
     18045     18044     18047     18050     18046     18044     18047     18048
     18046     18044     18047     18049     18046     18044     18047     18050
     18047     18050     18053     18054     18047     18050     18053     18055
     18047     18050     18053     18056     18048     18047     18050     18051
     18048     18047     18050     18052     18048     18047     18050     18053
     18049     18047     18050     18051     18049     18047     18050     18052
     18049     18047     18050     18053     18050     18053     18056     18057
     18050     18053     18056     18058     18050     18053     18056     18059
     18051     18050     18053     18054     18051     18050     18053     18055
     18051     18050     18053     18056     18052     18050     18053     18054
     18052     18050     18053     18055     18052     18050     18053     18056
     18053     18056     18059     18060     18053     18056     18059     18061
     18053     18056     18059     18062     18054     18053     18056     18057
     18054     18053     18056     18058     18054     18053     18056     18059
     18055     18053     18056     18057     18055     18053     18056     18058
     18055     18053     18056     18059     18056     18059     18062     18063
     18056     18059     18062     18064     18056     18059     18062     18065
     18057     18056     18059     18060     18057     18056     18059     18061
     18057     18056     18059     18062     18058     18056     18059     18060
     18058     18056     18059     18061     18058     18056     18059     18062
     18059     18062     18065     18066     18059     18062     18065     18067
     18059     18062     18065     18068     18060     18059     18062     18063
     18060     18059     18062     18064     18060     18059     18062     18065
     18061     18059     18062     18063     18061     18059     18062     18064
     18061     18059     18062     18065     18062     18065     18068     18069
     18062     18065     18068     18070     18062     18065     18068     18071
     18063     18062     18065     18066     18063     18062     18065     18067
     18063     18062     18065     18068     18064     18062     18065     18066
     18064     18062     18065     18067     18064     18062     18065     18068
     18065     18068     18071     18072     18065     18068     18071     18073
     18065     18068     18071     18074     18066     18065     18068     18069
     18066     18065     18068     18070     18066     18065     18068     18071
     18067     18065     18068     18069     18067     18065     18068     18070
     18067     18065     18068     18071     18069     18068     18071     18072
     18069     18068     18071     18073     18069     18068     18071     18074
     18070     18068     18071     18072     18070     18068     18071     18073
     18070     18068     18071     18074     18075     18088     18091     18092
     18075     18088     18091     18093     18075     18088     18091     18098
     18076     18075     18080     18081     18076     18075     18080     18082
     18076     18075     18080     18083     18076     18075     18084     18085
     18076     18075     18084     18086     18076     18075     18084     18087
     18076     18075     18088     18089     18076     18075     18088     18090
     18076     18075     18088     18091     18077     18076     18075     18080
     18077     18076     18075     18084     18077     18076     18075     18088
     18078     18076     18075     18080     18078     18076     18075     18084
     18078     18076     18075     18088     18079     18076     18075     18080
     18079     18076     18075     18084     18079     18076     18075     18088
     18080     18075     18084     18085     18080     18075     18084     18086
     18080     18075     18084     18087     18080     18075     18088     18089
     18080     18075     18088     18090     18080     18075     18088     18091
     18081     18080     18075     18084     18081     18080     18075     18088
     18082     18080     18075     18084     18082     18080     18075     18088
     18083     18080     18075     18084     18083     18080     18075     18088
     18084     18075     18088     18089     18084     18075     18088     18090
     18084     18075     18088     18091     18085     18084     18075     18088
     18086     18084     18075     18088     18087     18084     18075     18088
     18088     18091     18098     18094     18089     18088     18091     18092
     18089     18088     18091     18093     18089     18088     18091     18098
     18090     18088     18091     18092     18090     18088     18091     18093
     18090     18088     18091     18098     18091     18098     18094     18095
     18091     18098     18094     18096     18091     18098     18094     18097
     18092     18091     18098     18094     18093     18091     18098     18094
     18094     18097     18099     18100     18094     18097     18099     18101
     18094     18097     18099     18104     18095     18094     18097     18099
     18096     18094     18097     18099     18097     18099     18104     18102
     18097     18099     18104     18105     18097     18099     18104     18106
     18098     18094     18097     18099     18099     18104     18102     18103
     18099     18104     18102     18154     18099     18104     18106     18107
     18099     18104     18106     18108     18099     18104     18106     18110
     18100     18099     18104     18102     18100     18099     18104     18105
     18100     18099     18104     18106     18101     18099     18104     18102
     18101     18099     18104     18105     18101     18099     18104     18106
     18102     18104     18106     18107     18102     18104     18106     18108
     18102     18104     18106     18110     18102     18154     18156     18157
     18102     18154     18156     18158     18102     18154     18156     18159
     18103     18102     18104     18105     18103     18102     18104     18106
     18103     18102     18154     18155     18103     18102     18154     18156
     18104     18102     18154     18155     18104     18102     18154     18156
     18104     18106     18108     18109     18104     18106     18110     18111
     18104     18106     18110     18112     18105     18104     18102     18154
     18105     18104     18106     18107     18105     18104     18106     18108
     18105     18104     18106     18110     18106     18104     18102     18154
     18106     18110     18112     18113     18106     18110     18112     18114
     18107     18106     18108     18109     18107     18106     18110     18111
     18107     18106     18110     18112     18108     18106     18110     18111
     18108     18106     18110     18112     18109     18108     18106     18110
     18110     18112     18114     18115     18110     18112     18114     18116
     18110     18112     18114     18117     18111     18110     18112     18113
     18111     18110     18112     18114     18112     18114     18117     18118
     18112     18114     18117     18119     18112     18114     18117     18120
     18113     18112     18114     18115     18113     18112     18114     18116
     18113     18112     18114     18117     18114     18117     18120     18121
     18114     18117     18120     18122     18114     18117     18120     18123
     18115     18114     18117     18118     18115     18114     18117     18119
     18115     18114     18117     18120     18116     18114     18117     18118
     18116     18114     18117     18119     18116     18114     18117     18120
     18117     18120     18123     18124     18117     18120     18123     18125
     18117     18120     18123     18126     18118     18117     18120     18121
     18118     18117     18120     18122     18118     18117     18120     18123
     18119     18117     18120     18121     18119     18117     18120     18122
     18119     18117     18120     18123     18120     18123     18126     18127
     18120     18123     18126     18128     18120     18123     18126     18129
     18121     18120     18123     18124     18121     18120     18123     18125
     18121     18120     18123     18126     18122     18120     18123     18124
     18122     18120     18123     18125     18122     18120     18123     18126
     18123     18126     18129     18130     18123     18126     18129     18131
     18123     18126     18129     18132     18124     18123     18126     18127
     18124     18123     18126     18128     18124     18123     18126     18129
     18125     18123     18126     18127     18125     18123     18126     18128
     18125     18123     18126     18129     18126     18129     18132     18133
     18126     18129     18132     18134     18126     18129     18132     18135
     18127     18126     18129     18130     18127     18126     18129     18131
     18127     18126     18129     18132     18128     18126     18129     18130
     18128     18126     18129     18131     18128     18126     18129     18132
     18129     18132     18135     18136     18129     18132     18135     18137
     18129     18132     18135     18138     18130     18129     18132     18133
     18130     18129     18132     18134     18130     18129     18132     18135
     18131     18129     18132     18133     18131     18129     18132     18134
     18131     18129     18132     18135     18132     18135     18138     18139
     18132     18135     18138     18140     18132     18135     18138     18141
     18133     18132     18135     18136     18133     18132     18135     18137
     18133     18132     18135     18138     18134     18132     18135     18136
     18134     18132     18135     18137     18134     18132     18135     18138
     18135     18138     18141     18142     18135     18138     18141     18143
     18135     18138     18141     18144     18136     18135     18138     18139
     18136     18135     18138     18140     18136     18135     18138     18141
     18137     18135     18138     18139     18137     18135     18138     18140
     18137     18135     18138     18141     18138     18141     18144     18145
     18138     18141     18144     18146     18138     18141     18144     18147
     18139     18138     18141     18142     18139     18138     18141     18143
     18139     18138     18141     18144     18140     18138     18141     18142
     18140     18138     18141     18143     18140     18138     18141     18144
     18141     18144     18147     18148     18141     18144     18147     18149
     18141     18144     18147     18150     18142     18141     18144     18145
     18142     18141     18144     18146     18142     18141     18144     18147
     18143     18141     18144     18145     18143     18141     18144     18146
     18143     18141     18144     18147     18144     18147     18150     18151
     18144     18147     18150     18152     18144     18147     18150     18153
     18145     18144     18147     18148     18145     18144     18147     18149
     18145     18144     18147     18150     18146     18144     18147     18148
     18146     18144     18147     18149     18146     18144     18147     18150
     18148     18147     18150     18151     18148     18147     18150     18152
     18148     18147     18150     18153     18149     18147     18150     18151
     18149     18147     18150     18152     18149     18147     18150     18153
     18154     18156     18159     18160     18154     18156     18159     18161
     18154     18156     18159     18162     18155     18154     18156     18157
     18155     18154     18156     18158     18155     18154     18156     18159
     18156     18159     18162     18163     18156     18159     18162     18164
     18156     18159     18162     18165     18157     18156     18159     18160
     18157     18156     18159     18161     18157     18156     18159     18162
     18158     18156     18159     18160     18158     18156     18159     18161
     18158     18156     18159     18162     18159     18162     18165     18166
     18159     18162     18165     18167     18159     18162     18165     18168
     18160     18159     18162     18163     18160     18159     18162     18164
     18160     18159     18162     18165     18161     18159     18162     18163
     18161     18159     18162     18164     18161     18159     18162     18165
     18162     18165     18168     18169     18162     18165     18168     18170
     18162     18165     18168     18171     18163     18162     18165     18166
     18163     18162     18165     18167     18163     18162     18165     18168
     18164     18162     18165     18166     18164     18162     18165     18167
     18164     18162     18165     18168     18165     18168     18171     18172
     18165     18168     18171     18173     18165     18168     18171     18174
     18166     18165     18168     18169     18166     18165     18168     18170
     18166     18165     18168     18171     18167     18165     18168     18169
     18167     18165     18168     18170     18167     18165     18168     18171
     18168     18171     18174     18175     18168     18171     18174     18176
     18168     18171     18174     18177     18169     18168     18171     18172
     18169     18168     18171     18173     18169     18168     18171     18174
     18170     18168     18171     18172     18170     18168     18171     18173
     18170     18168     18171     18174     18171     18174     18177     18178
     18171     18174     18177     18179     18172     18171     18174     18175
     18172     18171     18174     18176     18172     18171     18174     18177
     18173     18171     18174     18175     18173     18171     18174     18176
     18173     18171     18174     18177     18174     18177     18179     18180
     18174     18177     18179     18181     18175     18174     18177     18178
     18175     18174     18177     18179     18176     18174     18177     18178
     18176     18174     18177     18179     18177     18179     18181     18182
     18177     18179     18181     18183     18177     18179     18181     18184
     18178     18177     18179     18180     18178     18177     18179     18181
     18179     18181     18184     18185     18179     18181     18184     18186
     18179     18181     18184     18187     18180     18179     18181     18182
     18180     18179     18181     18183     18180     18179     18181     18184
     18181     18184     18187     18188     18181     18184     18187     18189
     18181     18184     18187     18190     18182     18181     18184     18185
     18182     18181     18184     18186     18182     18181     18184     18187
     18183     18181     18184     18185     18183     18181     18184     18186
     18183     18181     18184     18187     18184     18187     18190     18191
     18184     18187     18190     18192     18184     18187     18190     18193
     18185     18184     18187     18188     18185     18184     18187     18189
     18185     18184     18187     18190     18186     18184     18187     18188
     18186     18184     18187     18189     18186     18184     18187     18190
     18187     18190     18193     18194     18187     18190     18193     18195
     18187     18190     18193     18196     18188     18187     18190     18191
     18188     18187     18190     18192     18188     18187     18190     18193
     18189     18187     18190     18191     18189     18187     18190     18192
     18189     18187     18190     18193     18190     18193     18196     18197
     18190     18193     18196     18198     18190     18193     18196     18199
     18191     18190     18193     18194     18191     18190     18193     18195
     18191     18190     18193     18196     18192     18190     18193     18194
     18192     18190     18193     18195     18192     18190     18193     18196
     18193     18196     18199     18200     18193     18196     18199     18201
     18193     18196     18199     18202     18194     18193     18196     18197
     18194     18193     18196     18198     18194     18193     18196     18199
     18195     18193     18196     18197     18195     18193     18196     18198
     18195     18193     18196     18199     18196     18199     18202     18203
     18196     18199     18202     18204     18196     18199     18202     18205
     18197     18196     18199     18200     18197     18196     18199     18201
     18197     18196     18199     18202     18198     18196     18199     18200
     18198     18196     18199     18201     18198     18196     18199     18202
     18200     18199     18202     18203     18200     18199     18202     18204
     18200     18199     18202     18205     18201     18199     18202     18203
     18201     18199     18202     18204     18201     18199     18202     18205
     18206     18210     18213     18214     18206     18210     18213     18215
     18206     18210     18213     18219     18207     18206     18210     18211
     18207     18206     18210     18212     18207     18206     18210     18213
     18208     18206     18210     18211     18208     18206     18210     18212
     18208     18206     18210     18213     18209     18206     18210     18211
     18209     18206     18210     18212     18209     18206     18210     18213
     18210     18213     18219     18216     18211     18210     18213     18214
     18211     18210     18213     18215     18211     18210     18213     18219
     18212     18210     18213     18214     18212     18210     18213     18215
     18212     18210     18213     18219     18213     18219     18216     18217
     18213     18219     18216     18218     18213     18219     18216     18220
     18214     18213     18219     18216     18215     18213     18219     18216
     18216     18220     18221     18222     18216     18220     18221     18223
     18216     18220     18221     18224     18217     18216     18220     18221
     18218     18216     18220     18221     18219     18216     18220     18221
     18220     18221     18224     18225     18220     18221     18224     18226
     18220     18221     18224     18232     18221     18224     18226     18227
     18221     18224     18232     18233     18221     18224     18232     18234
     18221     18224     18232     18235     18222     18221     18224     18225
     18222     18221     18224     18226     18222     18221     18224     18232
     18223     18221     18224     18225     18223     18221     18224     18226
     18223     18221     18224     18232     18224     18226     18227     18228
     18224     18226     18227     18229     18224     18232     18235     18236
     18225     18224     18226     18227     18225     18224     18232     18233
     18225     18224     18232     18234     18225     18224     18232     18235
     18226     18224     18232     18233     18226     18224     18232     18234
     18226     18224     18232     18235     18226     18227     18229     18230
     18226     18227     18229     18231     18226     18227     18229     18241
     18227     18226     18224     18232     18227     18229     18241     18242
     18227     18229     18241     18243     18227     18229     18241     18244
     18228     18227     18229     18230     18228     18227     18229     18231
     18228     18227     18229     18241     18229     18241     18244     18245
     18229     18241     18244     18246     18229     18241     18244     18247
     18230     18229     18241     18242     18230     18229     18241     18243
     18230     18229     18241     18244     18231     18229     18241     18242
     18231     18229     18241     18243     18231     18229     18241     18244
     18232     18235     18236     18237     18232     18235     18236     18238
     18233     18232     18235     18236     18234     18232     18235     18236
     18235     18236     18238     18239     18235     18236     18238     18240
     18235     18236     18238     18288     18236     18238     18288     18289
     18236     18238     18288     18290     18236     18238     18288     18291
     18237     18236     18238     18239     18237     18236     18238     18240
     18237     18236     18238     18288     18238     18288     18291     18292
     18238     18288     18291     18293     18238     18288     18291     18294
     18239     18238     18288     18289     18239     18238     18288     18290
     18239     18238     18288     18291     18240     18238     18288     18289
     18240     18238     18288     18290     18240     18238     18288     18291
     18241     18244     18247     18248     18241     18244     18247     18249
     18242     18241     18244     18245     18242     18241     18244     18246
     18242     18241     18244     18247     18243     18241     18244     18245
     18243     18241     18244     18246     18243     18241     18244     18247
     18244     18247     18249     18250     18244     18247     18249     18251
     18245     18244     18247     18248     18245     18244     18247     18249
     18246     18244     18247     18248     18246     18244     18247     18249
     18247     18249     18251     18252     18247     18249     18251     18253
     18247     18249     18251     18254     18248     18247     18249     18250
     18248     18247     18249     18251     18249     18251     18254     18255
     18249     18251     18254     18256     18250     18249     18251     18252
     18250     18249     18251     18253     18250     18249     18251     18254
     18251     18254     18256     18257     18251     18254     18256     18258
     18252     18251     18254     18255     18252     18251     18254     18256
     18253     18251     18254     18255     18253     18251     18254     18256
     18254     18256     18258     18259     18254     18256     18258     18260
     18254     18256     18258     18261     18255     18254     18256     18257
     18255     18254     18256     18258     18256     18258     18261     18262
     18256     18258     18261     18263     18257     18256     18258     18259
     18257     18256     18258     18260     18257     18256     18258     18261
     18258     18261     18263     18264     18258     18261     18263     18265
     18259     18258     18261     18262     18259     18258     18261     18263
     18260     18258     18261     18262     18260     18258     18261     18263
     18261     18263     18265     18266     18261     18263     18265     18267
     18261     18263     18265     18268     18262     18261     18263     18264
     18262     18261     18263     18265     18263     18265     18268     18269
     18263     18265     18268     18270     18264     18263     18265     18266
     18264     18263     18265     18267     18264     18263     18265     18268
     18265     18268     18270     18271     18265     18268     18270     18272
     18266     18265     18268     18269     18266     18265     18268     18270
     18267     18265     18268     18269     18267     18265     18268     18270
     18268     18270     18272     18273     18268     18270     18272     18274
     18268     18270     18272     18275     18269     18268     18270     18271
     18269     18268     18270     18272     18270     18272     18275     18276
     18270     18272     18275     18277     18270     18272     18275     18278
     18271     18270     18272     18273     18271     18270     18272     18274
     18271     18270     18272     18275     18272     18275     18278     18279
     18272     18275     18278     18280     18272     18275     18278     18281
     18273     18272     18275     18276     18273     18272     18275     18277
     18273     18272     18275     18278     18274     18272     18275     18276
     18274     18272     18275     18277     18274     18272     18275     18278
     18275     18278     18281     18282     18275     18278     18281     18283
     18275     18278     18281     18284     18276     18275     18278     18279
     18276     18275     18278     18280     18276     18275     18278     18281
     18277     18275     18278     18279     18277     18275     18278     18280
     18277     18275     18278     18281     18278     18281     18284     18285
     18278     18281     18284     18286     18278     18281     18284     18287
     18279     18278     18281     18282     18279     18278     18281     18283
     18279     18278     18281     18284     18280     18278     18281     18282
     18280     18278     18281     18283     18280     18278     18281     18284
     18282     18281     18284     18285     18282     18281     18284     18286
     18282     18281     18284     18287     18283     18281     18284     18285
     18283     18281     18284     18286     18283     18281     18284     18287
     18288     18291     18294     18295     18288     18291     18294     18296
     18288     18291     18294     18297     18289     18288     18291     18292
     18289     18288     18291     18293     18289     18288     18291     18294
     18290     18288     18291     18292     18290     18288     18291     18293
     18290     18288     18291     18294     18291     18294     18297     18298
     18291     18294     18297     18299     18291     18294     18297     18300
     18292     18291     18294     18295     18292     18291     18294     18296
     18292     18291     18294     18297     18293     18291     18294     18295
     18293     18291     18294     18296     18293     18291     18294     18297
     18294     18297     18300     18301     18294     18297     18300     18302
     18294     18297     18300     18303     18295     18294     18297     18298
     18295     18294     18297     18299     18295     18294     18297     18300
     18296     18294     18297     18298     18296     18294     18297     18299
     18296     18294     18297     18300     18297     18300     18303     18304
     18297     18300     18303     18305     18297     18300     18303     18306
     18298     18297     18300     18301     18298     18297     18300     18302
     18298     18297     18300     18303     18299     18297     18300     18301
     18299     18297     18300     18302     18299     18297     18300     18303
     18300     18303     18306     18307     18300     18303     18306     18308
     18300     18303     18306     18309     18301     18300     18303     18304
     18301     18300     18303     18305     18301     18300     18303     18306
     18302     18300     18303     18304     18302     18300     18303     18305
     18302     18300     18303     18306     18303     18306     18309     18310
     18303     18306     18309     18311     18303     18306     18309     18312
     18304     18303     18306     18307     18304     18303     18306     18308
     18304     18303     18306     18309     18305     18303     18306     18307
     18305     18303     18306     18308     18305     18303     18306     18309
     18306     18309     18312     18313     18306     18309     18312     18314
     18306     18309     18312     18315     18307     18306     18309     18310
     18307     18306     18309     18311     18307     18306     18309     18312
     18308     18306     18309     18310     18308     18306     18309     18311
     18308     18306     18309     18312     18309     18312     18315     18316
     18309     18312     18315     18317     18309     18312     18315     18318
     18310     18309     18312     18313     18310     18309     18312     18314
     18310     18309     18312     18315     18311     18309     18312     18313
     18311     18309     18312     18314     18311     18309     18312     18315
     18312     18315     18318     18319     18312     18315     18318     18320
     18312     18315     18318     18321     18313     18312     18315     18316
     18313     18312     18315     18317     18313     18312     18315     18318
     18314     18312     18315     18316     18314     18312     18315     18317
     18314     18312     18315     18318     18315     18318     18321     18322
     18315     18318     18321     18323     18315     18318     18321     18324
     18316     18315     18318     18319     18316     18315     18318     18320
     18316     18315     18318     18321     18317     18315     18318     18319
     18317     18315     18318     18320     18317     18315     18318     18321
     18318     18321     18324     18325     18318     18321     18324     18326
     18318     18321     18324     18327     18319     18318     18321     18322
     18319     18318     18321     18323     18319     18318     18321     18324
     18320     18318     18321     18322     18320     18318     18321     18323
     18320     18318     18321     18324     18321     18324     18327     18328
     18321     18324     18327     18329     18321     18324     18327     18330
     18322     18321     18324     18325     18322     18321     18324     18326
     18322     18321     18324     18327     18323     18321     18324     18325
     18323     18321     18324     18326     18323     18321     18324     18327
     18324     18327     18330     18331     18324     18327     18330     18332
     18324     18327     18330     18333     18325     18324     18327     18328
     18325     18324     18327     18329     18325     18324     18327     18330
     18326     18324     18327     18328     18326     18324     18327     18329
     18326     18324     18327     18330     18327     18330     18333     18334
     18327     18330     18333     18335     18327     18330     18333     18336
     18328     18327     18330     18331     18328     18327     18330     18332
     18328     18327     18330     18333     18329     18327     18330     18331
     18329     18327     18330     18332     18329     18327     18330     18333
     18331     18330     18333     18334     18331     18330     18333     18335
     18331     18330     18333     18336     18332     18330     18333     18334
     18332     18330     18333     18335     18332     18330     18333     18336
     18337     18341     18344     18345     18337     18341     18344     18375
     18337     18383     18380     18375     18337     18383     18380     18381
     18337     18383     18380     18382     18338     18337     18339     18340
     18338     18337     18341     18342     18338     18337     18341     18343
     18338     18337     18341     18344     18338     18337     18383     18380
     18338     18337     18383     18384     18338     18337     18383     18385
     18339     18337     18341     18342     18339     18337     18341     18343
     18339     18337     18341     18344     18339     18337     18383     18380
     18339     18337     18383     18384     18339     18337     18383     18385
     18340     18339     18337     18341     18340     18339     18337     18383
     18341     18337     18383     18380     18341     18337     18383     18384
     18341     18337     18383     18385     18341     18344     18345     18346
     18341     18344     18345     18347     18341     18344     18375     18373
     18341     18344     18375     18376     18341     18344     18375     18380
     18342     18341     18337     18383     18342     18341     18344     18345
     18342     18341     18344     18375     18343     18341     18337     18383
     18343     18341     18344     18345     18343     18341     18344     18375
     18344     18341     18337     18383     18344     18345     18347     18348
     18344     18345     18347     18349     18344     18345     18347     18350
     18344     18375     18373     18350     18344     18375     18373     18370
     18344     18375     18373     18374     18344     18375     18376     18377
     18344     18375     18376     18378     18344     18375     18376     18379
     18344     18375     18380     18381     18344     18375     18380     18382
     18344     18375     18380     18383     18345     18344     18375     18373
     18345     18344     18375     18376     18345     18344     18375     18380
     18345     18347     18350     18351     18345     18347     18350     18352
     18345     18347     18350     18373     18346     18345     18344     18375
     18346     18345     18347     18348     18346     18345     18347     18349
     18346     18345     18347     18350     18347     18345     18344     18375
     18347     18350     18352     18353     18347     18350     18352     18354
     18347     18350     18352     18362     18347     18350     18373     18370
     18347     18350     18373     18374     18347     18350     18373     18375
     18348     18347     18350     18351     18348     18347     18350     18352
     18348     18347     18350     18373     18349     18347     18350     18351
     18349     18347     18350     18352     18349     18347     18350     18373
     18350     18352     18354     18355     18350     18352     18354     18356
     18350     18352     18354     18357     18350     18352     18362     18360
     18350     18352     18362     18363     18350     18352     18362     18367
     18350     18373     18370     18367     18350     18373     18370     18371
     18350     18373     18370     18372     18350     18373     18375     18376
     18350     18373     18375     18380     18351     18350     18352     18353
     18351     18350     18352     18354     18351     18350     18352     18362
     18351     18350     18373     18370     18351     18350     18373     18374
     18351     18350     18373     18375     18352     18350     18373     18370
     18352     18350     18373     18374     18352     18350     18373     18375
     18352     18354     18357     18358     18352     18354     18357     18359
     18352     18354     18357     18360     18352     18362     18360     18357
     18352     18362     18360     18361     18352     18362     18360     18386
     18352     18362     18363     18364     18352     18362     18363     18365
     18352     18362     18363     18366     18352     18362     18367     18368
     18352     18362     18367     18369     18352     18362     18367     18370
     18353     18352     18350     18373     18353     18352     18354     18355
     18353     18352     18354     18356     18353     18352     18354     18357
     18353     18352     18362     18360     18353     18352     18362     18363
     18353     18352     18362     18367     18354     18352     18350     18373
     18354     18352     18362     18360     18354     18352     18362     18363
     18354     18352     18362     18367     18354     18357     18360     18361
     18354     18357     18360     18362     18354     18357     18360     18386
     18355     18354     18352     18362     18355     18354     18357     18358
     18355     18354     18357     18359     18355     18354     18357     18360
     18356     18354     18352     18362     18356     18354     18357     18358
     18356     18354     18357     18359     18356     18354     18357     18360
     18357     18354     18352     18362     18357     18360     18362     18363
     18357     18360     18362     18367     18357     18360     18386     18387
     18357     18360     18386     18388     18357     18360     18386     18392
     18358     18357     18360     18361     18358     18357     18360     18362
     18358     18357     18360     18386     18359     18357     18360     18361
     18359     18357     18360     18362     18359     18357     18360     18386
     18360     18362     18363     18364     18360     18362     18363     18365
     18360     18362     18363     18366     18360     18362     18367     18368
     18360     18362     18367     18369     18360     18362     18367     18370
     18360     18386     18388     18389     18360     18386     18388     18390
     18360     18386     18388     18391     18360     18386     18392     18393
     18360     18386     18392     18394     18360     18386     18392     18395
     18361     18360     18362     18363     18361     18360     18362     18367
     18361     18360     18386     18387     18361     18360     18386     18388
     18361     18360     18386     18392     18362     18352     18350     18373
     18362     18360     18386     18387     18362     18360     18386     18388
     18362     18360     18386     18392     18362     18367     18370     18371
     18362     18367     18370     18372     18362     18367     18370     18373
     18363     18362     18360     18386     18363     18362     18367     18368
     18363     18362     18367     18369     18363     18362     18367     18370
     18364     18363     18362     18367     18365     18363     18362     18367
     18366     18363     18362     18367     18367     18362     18360     18386
     18367     18370     18373     18374     18367     18370     18373     18375
     18368     18367     18370     18371     18368     18367     18370     18372
     18368     18367     18370     18373     18369     18367     18370     18371
     18369     18367     18370     18372     18369     18367     18370     18373
     18370     18373     18375     18376     18370     18373     18375     18380
     18371     18370     18373     18374     18371     18370     18373     18375
     18372     18370     18373     18374     18372     18370     18373     18375
     18373     18375     18376     18377     18373     18375     18376     18378
     18373     18375     18376     18379     18373     18375     18380     18381
     18373     18375     18380     18382     18373     18375     18380     18383
     18374     18373     18375     18376     18374     18373     18375     18380
     18375     18380     18383     18384     18375     18380     18383     18385
     18376     18375     18380     18381     18376     18375     18380     18382
     18376     18375     18380     18383     18377     18376     18375     18380
     18378     18376     18375     18380     18379     18376     18375     18380
     18381     18380     18383     18384     18381     18380     18383     18385
     18382     18380     18383     18384     18382     18380     18383     18385
     18386     18392     18395     18396     18386     18392     18395     18397
     18386     18392     18395     18398     18387     18386     18388     18389
     18387     18386     18388     18390     18387     18386     18388     18391
     18387     18386     18392     18393     18387     18386     18392     18394
     18387     18386     18392     18395     18388     18386     18392     18393
     18388     18386     18392     18394     18388     18386     18392     18395
     18389     18388     18386     18392     18390     18388     18386     18392
     18391     18388     18386     18392     18392     18395     18398     18399
     18392     18395     18398     18400     18392     18395     18398     18401
     18393     18392     18395     18396     18393     18392     18395     18397
     18393     18392     18395     18398     18394     18392     18395     18396
     18394     18392     18395     18397     18394     18392     18395     18398
     18395     18398     18401     18402     18395     18398     18401     18403
     18395     18398     18401     18407     18396     18395     18398     18399
     18396     18395     18398     18400     18396     18395     18398     18401
     18397     18395     18398     18399     18397     18395     18398     18400
     18397     18395     18398     18401     18398     18401     18403     18404
     18398     18401     18403     18405     18398     18401     18403     18406
     18398     18401     18407     18408     18398     18401     18407     18409
     18398     18401     18407     18410     18399     18398     18401     18402
     18399     18398     18401     18403     18399     18398     18401     18407
     18400     18398     18401     18402     18400     18398     18401     18403
     18400     18398     18401     18407     18402     18401     18403     18404
     18402     18401     18403     18405     18402     18401     18403     18406
     18402     18401     18407     18408     18402     18401     18407     18409
     18402     18401     18407     18410     18403     18401     18407     18408
     18403     18401     18407     18409     18403     18401     18407     18410
     18404     18403     18401     18407     18405     18403     18401     18407
     18406     18403     18401     18407     18411     18415     18417     18418
     18411     18415     18419     18420     18411     18415     18419     18421
     18411     18415     18419     18423     18411     18431     18427     18423
     18411     18431     18427     18428     18411     18431     18427     18429
     18411     18431     18436     18433     18412     18411     18413     18414
     18412     18411     18415     18416     18412     18411     18415     18417
     18412     18411     18415     18419     18412     18411     18431     18427
     18412     18411     18431     18432     18412     18411     18431     18436
     18413     18411     18415     18416     18413     18411     18415     18417
     18413     18411     18415     18419     18413     18411     18431     18427
     18413     18411     18431     18432     18413     18411     18431     18436
     18414     18413     18411     18415     18414     18413     18411     18431
     18415     18411     18431     18427     18415     18411     18431     18432
     18415     18411     18431     18436     18415     18419     18421     18422
     18415     18419     18423     18424     18415     18419     18423     18425
     18415     18419     18423     18427     18416     18415     18411     18431
     18416     18415     18417     18418     18416     18415     18419     18420
     18416     18415     18419     18421     18416     18415     18419     18423
     18417     18415     18411     18431     18417     18415     18419     18420
     18417     18415     18419     18421     18417     18415     18419     18423
     18418     18417     18415     18419     18419     18415     18411     18431
     18419     18423     18425     18426     18419     18423     18427     18428
     18419     18423     18427     18429     18419     18423     18427     18431
     18420     18419     18421     18422     18420     18419     18423     18424
     18420     18419     18423     18425     18420     18419     18423     18427
     18421     18419     18423     18424     18421     18419     18423     18425
     18421     18419     18423     18427     18422     18421     18419     18423
     18423     18427     18429     18430     18423     18427     18431     18432
     18423     18427     18431     18436     18424     18423     18425     18426
     18424     18423     18427     18428     18424     18423     18427     18429
     18424     18423     18427     18431     18425     18423     18427     18428
     18425     18423     18427     18429     18425     18423     18427     18431
     18426     18425     18423     18427     18427     18431     18436     18433
     18428     18427     18429     18430     18428     18427     18431     18432
     18428     18427     18431     18436     18429     18427     18431     18432
     18429     18427     18431     18436     18430     18429     18427     18431
     18431     18436     18433     18434     18431     18436     18433     18435
     18431     18436     18433     18437     18432     18431     18436     18433
     18433     18437     18438     18439     18433     18437     18438     18440
     18433     18437     18438     18441     18434     18433     18437     18438
     18435     18433     18437     18438     18436     18433     18437     18438
     18437     18438     18441     18442     18437     18438     18441     18443
     18437     18438     18441     18449     18438     18441     18443     18444
     18438     18441     18449     18450     18438     18441     18449     18451
     18438     18441     18449     18452     18439     18438     18441     18442
     18439     18438     18441     18443     18439     18438     18441     18449
     18440     18438     18441     18442     18440     18438     18441     18443
     18440     18438     18441     18449     18441     18443     18444     18445
     18441     18443     18444     18446     18441     18449     18452     18453
     18442     18441     18443     18444     18442     18441     18449     18450
     18442     18441     18449     18451     18442     18441     18449     18452
     18443     18441     18449     18450     18443     18441     18449     18451
     18443     18441     18449     18452     18443     18444     18446     18447
     18443     18444     18446     18448     18443     18444     18446     18458
     18444     18443     18441     18449     18444     18446     18458     18459
     18444     18446     18458     18460     18444     18446     18458     18461
     18445     18444     18446     18447     18445     18444     18446     18448
     18445     18444     18446     18458     18446     18458     18461     18462
     18446     18458     18461     18463     18446     18458     18461     18464
     18447     18446     18458     18459     18447     18446     18458     18460
     18447     18446     18458     18461     18448     18446     18458     18459
     18448     18446     18458     18460     18448     18446     18458     18461
     18449     18452     18453     18454     18449     18452     18453     18455
     18450     18449     18452     18453     18451     18449     18452     18453
     18452     18453     18455     18456     18452     18453     18455     18457
     18452     18453     18455     18505     18453     18455     18505     18506
     18453     18455     18505     18507     18453     18455     18505     18508
     18454     18453     18455     18456     18454     18453     18455     18457
     18454     18453     18455     18505     18455     18505     18508     18509
     18455     18505     18508     18510     18455     18505     18508     18511
     18456     18455     18505     18506     18456     18455     18505     18507
     18456     18455     18505     18508     18457     18455     18505     18506
     18457     18455     18505     18507     18457     18455     18505     18508
     18458     18461     18464     18465     18458     18461     18464     18466
     18459     18458     18461     18462     18459     18458     18461     18463
     18459     18458     18461     18464     18460     18458     18461     18462
     18460     18458     18461     18463     18460     18458     18461     18464
     18461     18464     18466     18467     18461     18464     18466     18468
     18462     18461     18464     18465     18462     18461     18464     18466
     18463     18461     18464     18465     18463     18461     18464     18466
     18464     18466     18468     18469     18464     18466     18468     18470
     18464     18466     18468     18471     18465     18464     18466     18467
     18465     18464     18466     18468     18466     18468     18471     18472
     18466     18468     18471     18473     18467     18466     18468     18469
     18467     18466     18468     18470     18467     18466     18468     18471
     18468     18471     18473     18474     18468     18471     18473     18475
     18469     18468     18471     18472     18469     18468     18471     18473
     18470     18468     18471     18472     18470     18468     18471     18473
     18471     18473     18475     18476     18471     18473     18475     18477
     18471     18473     18475     18478     18472     18471     18473     18474
     18472     18471     18473     18475     18473     18475     18478     18479
     18473     18475     18478     18480     18474     18473     18475     18476
     18474     18473     18475     18477     18474     18473     18475     18478
     18475     18478     18480     18481     18475     18478     18480     18482
     18476     18475     18478     18479     18476     18475     18478     18480
     18477     18475     18478     18479     18477     18475     18478     18480
     18478     18480     18482     18483     18478     18480     18482     18484
     18478     18480     18482     18485     18479     18478     18480     18481
     18479     18478     18480     18482     18480     18482     18485     18486
     18480     18482     18485     18487     18481     18480     18482     18483
     18481     18480     18482     18484     18481     18480     18482     18485
     18482     18485     18487     18488     18482     18485     18487     18489
     18483     18482     18485     18486     18483     18482     18485     18487
     18484     18482     18485     18486     18484     18482     18485     18487
     18485     18487     18489     18490     18485     18487     18489     18491
     18485     18487     18489     18492     18486     18485     18487     18488
     18486     18485     18487     18489     18487     18489     18492     18493
     18487     18489     18492     18494     18487     18489     18492     18495
     18488     18487     18489     18490     18488     18487     18489     18491
     18488     18487     18489     18492     18489     18492     18495     18496
     18489     18492     18495     18497     18489     18492     18495     18498
     18490     18489     18492     18493     18490     18489     18492     18494
     18490     18489     18492     18495     18491     18489     18492     18493
     18491     18489     18492     18494     18491     18489     18492     18495
     18492     18495     18498     18499     18492     18495     18498     18500
     18492     18495     18498     18501     18493     18492     18495     18496
     18493     18492     18495     18497     18493     18492     18495     18498
     18494     18492     18495     18496     18494     18492     18495     18497
     18494     18492     18495     18498     18495     18498     18501     18502
     18495     18498     18501     18503     18495     18498     18501     18504
     18496     18495     18498     18499     18496     18495     18498     18500
     18496     18495     18498     18501     18497     18495     18498     18499
     18497     18495     18498     18500     18497     18495     18498     18501
     18499     18498     18501     18502     18499     18498     18501     18503
     18499     18498     18501     18504     18500     18498     18501     18502
     18500     18498     18501     18503     18500     18498     18501     18504
     18505     18508     18511     18512     18505     18508     18511     18513
     18505     18508     18511     18514     18506     18505     18508     18509
     18506     18505     18508     18510     18506     18505     18508     18511
     18507     18505     18508     18509     18507     18505     18508     18510
     18507     18505     18508     18511     18508     18511     18514     18515
     18508     18511     18514     18516     18508     18511     18514     18517
     18509     18508     18511     18512     18509     18508     18511     18513
     18509     18508     18511     18514     18510     18508     18511     18512
     18510     18508     18511     18513     18510     18508     18511     18514
     18511     18514     18517     18518     18511     18514     18517     18519
     18511     18514     18517     18520     18512     18511     18514     18515
     18512     18511     18514     18516     18512     18511     18514     18517
     18513     18511     18514     18515     18513     18511     18514     18516
     18513     18511     18514     18517     18514     18517     18520     18521
     18514     18517     18520     18522     18514     18517     18520     18523
     18515     18514     18517     18518     18515     18514     18517     18519
     18515     18514     18517     18520     18516     18514     18517     18518
     18516     18514     18517     18519     18516     18514     18517     18520
     18517     18520     18523     18524     18517     18520     18523     18525
     18517     18520     18523     18526     18518     18517     18520     18521
     18518     18517     18520     18522     18518     18517     18520     18523
     18519     18517     18520     18521     18519     18517     18520     18522
     18519     18517     18520     18523     18520     18523     18526     18527
     18520     18523     18526     18528     18520     18523     18526     18529
     18521     18520     18523     18524     18521     18520     18523     18525
     18521     18520     18523     18526     18522     18520     18523     18524
     18522     18520     18523     18525     18522     18520     18523     18526
     18523     18526     18529     18530     18523     18526     18529     18531
     18523     18526     18529     18532     18524     18523     18526     18527
     18524     18523     18526     18528     18524     18523     18526     18529
     18525     18523     18526     18527     18525     18523     18526     18528
     18525     18523     18526     18529     18526     18529     18532     18533
     18526     18529     18532     18534     18526     18529     18532     18535
     18527     18526     18529     18530     18527     18526     18529     18531
     18527     18526     18529     18532     18528     18526     18529     18530
     18528     18526     18529     18531     18528     18526     18529     18532
     18529     18532     18535     18536     18529     18532     18535     18537
     18529     18532     18535     18538     18530     18529     18532     18533
     18530     18529     18532     18534     18530     18529     18532     18535
     18531     18529     18532     18533     18531     18529     18532     18534
     18531     18529     18532     18535     18532     18535     18538     18539
     18532     18535     18538     18540     18532     18535     18538     18541
     18533     18532     18535     18536     18533     18532     18535     18537
     18533     18532     18535     18538     18534     18532     18535     18536
     18534     18532     18535     18537     18534     18532     18535     18538
     18535     18538     18541     18542     18535     18538     18541     18543
     18535     18538     18541     18544     18536     18535     18538     18539
     18536     18535     18538     18540     18536     18535     18538     18541
     18537     18535     18538     18539     18537     18535     18538     18540
     18537     18535     18538     18541     18538     18541     18544     18545
     18538     18541     18544     18546     18538     18541     18544     18547
     18539     18538     18541     18542     18539     18538     18541     18543
     18539     18538     18541     18544     18540     18538     18541     18542
     18540     18538     18541     18543     18540     18538     18541     18544
     18541     18544     18547     18548     18541     18544     18547     18549
     18541     18544     18547     18550     18542     18541     18544     18545
     18542     18541     18544     18546     18542     18541     18544     18547
     18543     18541     18544     18545     18543     18541     18544     18546
     18543     18541     18544     18547     18544     18547     18550     18551
     18544     18547     18550     18552     18544     18547     18550     18553
     18545     18544     18547     18548     18545     18544     18547     18549
     18545     18544     18547     18550     18546     18544     18547     18548
     18546     18544     18547     18549     18546     18544     18547     18550
     18548     18547     18550     18551     18548     18547     18550     18552
     18548     18547     18550     18553     18549     18547     18550     18551
     18549     18547     18550     18552     18549     18547     18550     18553
     18554     18567     18570     18571     18554     18567     18570     18572
     18554     18567     18570     18577     18555     18554     18559     18560
     18555     18554     18559     18561     18555     18554     18559     18562
     18555     18554     18563     18564     18555     18554     18563     18565
     18555     18554     18563     18566     18555     18554     18567     18568
     18555     18554     18567     18569     18555     18554     18567     18570
     18556     18555     18554     18559     18556     18555     18554     18563
     18556     18555     18554     18567     18557     18555     18554     18559
     18557     18555     18554     18563     18557     18555     18554     18567
     18558     18555     18554     18559     18558     18555     18554     18563
     18558     18555     18554     18567     18559     18554     18563     18564
     18559     18554     18563     18565     18559     18554     18563     18566
     18559     18554     18567     18568     18559     18554     18567     18569
     18559     18554     18567     18570     18560     18559     18554     18563
     18560     18559     18554     18567     18561     18559     18554     18563
     18561     18559     18554     18567     18562     18559     18554     18563
     18562     18559     18554     18567     18563     18554     18567     18568
     18563     18554     18567     18569     18563     18554     18567     18570
     18564     18563     18554     18567     18565     18563     18554     18567
     18566     18563     18554     18567     18567     18570     18577     18573
     18568     18567     18570     18571     18568     18567     18570     18572
     18568     18567     18570     18577     18569     18567     18570     18571
     18569     18567     18570     18572     18569     18567     18570     18577
     18570     18577     18573     18574     18570     18577     18573     18575
     18570     18577     18573     18576     18571     18570     18577     18573
     18572     18570     18577     18573     18573     18576     18578     18579
     18573     18576     18578     18580     18573     18576     18578     18583
     18574     18573     18576     18578     18575     18573     18576     18578
     18576     18578     18583     18581     18576     18578     18583     18584
     18576     18578     18583     18585     18577     18573     18576     18578
     18578     18583     18581     18582     18578     18583     18581     18633
     18578     18583     18585     18586     18578     18583     18585     18587
     18578     18583     18585     18589     18579     18578     18583     18581
     18579     18578     18583     18584     18579     18578     18583     18585
     18580     18578     18583     18581     18580     18578     18583     18584
     18580     18578     18583     18585     18581     18583     18585     18586
     18581     18583     18585     18587     18581     18583     18585     18589
     18581     18633     18635     18636     18581     18633     18635     18637
     18581     18633     18635     18638     18582     18581     18583     18584
     18582     18581     18583     18585     18582     18581     18633     18634
     18582     18581     18633     18635     18583     18581     18633     18634
     18583     18581     18633     18635     18583     18585     18587     18588
     18583     18585     18589     18590     18583     18585     18589     18591
     18584     18583     18581     18633     18584     18583     18585     18586
     18584     18583     18585     18587     18584     18583     18585     18589
     18585     18583     18581     18633     18585     18589     18591     18592
     18585     18589     18591     18593     18586     18585     18587     18588
     18586     18585     18589     18590     18586     18585     18589     18591
     18587     18585     18589     18590     18587     18585     18589     18591
     18588     18587     18585     18589     18589     18591     18593     18594
     18589     18591     18593     18595     18589     18591     18593     18596
     18590     18589     18591     18592     18590     18589     18591     18593
     18591     18593     18596     18597     18591     18593     18596     18598
     18591     18593     18596     18599     18592     18591     18593     18594
     18592     18591     18593     18595     18592     18591     18593     18596
     18593     18596     18599     18600     18593     18596     18599     18601
     18593     18596     18599     18602     18594     18593     18596     18597
     18594     18593     18596     18598     18594     18593     18596     18599
     18595     18593     18596     18597     18595     18593     18596     18598
     18595     18593     18596     18599     18596     18599     18602     18603
     18596     18599     18602     18604     18596     18599     18602     18605
     18597     18596     18599     18600     18597     18596     18599     18601
     18597     18596     18599     18602     18598     18596     18599     18600
     18598     18596     18599     18601     18598     18596     18599     18602
     18599     18602     18605     18606     18599     18602     18605     18607
     18599     18602     18605     18608     18600     18599     18602     18603
     18600     18599     18602     18604     18600     18599     18602     18605
     18601     18599     18602     18603     18601     18599     18602     18604
     18601     18599     18602     18605     18602     18605     18608     18609
     18602     18605     18608     18610     18602     18605     18608     18611
     18603     18602     18605     18606     18603     18602     18605     18607
     18603     18602     18605     18608     18604     18602     18605     18606
     18604     18602     18605     18607     18604     18602     18605     18608
     18605     18608     18611     18612     18605     18608     18611     18613
     18605     18608     18611     18614     18606     18605     18608     18609
     18606     18605     18608     18610     18606     18605     18608     18611
     18607     18605     18608     18609     18607     18605     18608     18610
     18607     18605     18608     18611     18608     18611     18614     18615
     18608     18611     18614     18616     18608     18611     18614     18617
     18609     18608     18611     18612     18609     18608     18611     18613
     18609     18608     18611     18614     18610     18608     18611     18612
     18610     18608     18611     18613     18610     18608     18611     18614
     18611     18614     18617     18618     18611     18614     18617     18619
     18611     18614     18617     18620     18612     18611     18614     18615
     18612     18611     18614     18616     18612     18611     18614     18617
     18613     18611     18614     18615     18613     18611     18614     18616
     18613     18611     18614     18617     18614     18617     18620     18621
     18614     18617     18620     18622     18614     18617     18620     18623
     18615     18614     18617     18618     18615     18614     18617     18619
     18615     18614     18617     18620     18616     18614     18617     18618
     18616     18614     18617     18619     18616     18614     18617     18620
     18617     18620     18623     18624     18617     18620     18623     18625
     18617     18620     18623     18626     18618     18617     18620     18621
     18618     18617     18620     18622     18618     18617     18620     18623
     18619     18617     18620     18621     18619     18617     18620     18622
     18619     18617     18620     18623     18620     18623     18626     18627
     18620     18623     18626     18628     18620     18623     18626     18629
     18621     18620     18623     18624     18621     18620     18623     18625
     18621     18620     18623     18626     18622     18620     18623     18624
     18622     18620     18623     18625     18622     18620     18623     18626
     18623     18626     18629     18630     18623     18626     18629     18631
     18623     18626     18629     18632     18624     18623     18626     18627
     18624     18623     18626     18628     18624     18623     18626     18629
     18625     18623     18626     18627     18625     18623     18626     18628
     18625     18623     18626     18629     18627     18626     18629     18630
     18627     18626     18629     18631     18627     18626     18629     18632
     18628     18626     18629     18630     18628     18626     18629     18631
     18628     18626     18629     18632     18633     18635     18638     18639
     18633     18635     18638     18640     18633     18635     18638     18641
     18634     18633     18635     18636     18634     18633     18635     18637
     18634     18633     18635     18638     18635     18638     18641     18642
     18635     18638     18641     18643     18635     18638     18641     18644
     18636     18635     18638     18639     18636     18635     18638     18640
     18636     18635     18638     18641     18637     18635     18638     18639
     18637     18635     18638     18640     18637     18635     18638     18641
     18638     18641     18644     18645     18638     18641     18644     18646
     18638     18641     18644     18647     18639     18638     18641     18642
     18639     18638     18641     18643     18639     18638     18641     18644
     18640     18638     18641     18642     18640     18638     18641     18643
     18640     18638     18641     18644     18641     18644     18647     18648
     18641     18644     18647     18649     18641     18644     18647     18650
     18642     18641     18644     18645     18642     18641     18644     18646
     18642     18641     18644     18647     18643     18641     18644     18645
     18643     18641     18644     18646     18643     18641     18644     18647
     18644     18647     18650     18651     18644     18647     18650     18652
     18644     18647     18650     18653     18645     18644     18647     18648
     18645     18644     18647     18649     18645     18644     18647     18650
     18646     18644     18647     18648     18646     18644     18647     18649
     18646     18644     18647     18650     18647     18650     18653     18654
     18647     18650     18653     18655     18647     18650     18653     18656
     18648     18647     18650     18651     18648     18647     18650     18652
     18648     18647     18650     18653     18649     18647     18650     18651
     18649     18647     18650     18652     18649     18647     18650     18653
     18650     18653     18656     18657     18650     18653     18656     18658
     18651     18650     18653     18654     18651     18650     18653     18655
     18651     18650     18653     18656     18652     18650     18653     18654
     18652     18650     18653     18655     18652     18650     18653     18656
     18653     18656     18658     18659     18653     18656     18658     18660
     18654     18653     18656     18657     18654     18653     18656     18658
     18655     18653     18656     18657     18655     18653     18656     18658
     18656     18658     18660     18661     18656     18658     18660     18662
     18656     18658     18660     18663     18657     18656     18658     18659
     18657     18656     18658     18660     18658     18660     18663     18664
     18658     18660     18663     18665     18658     18660     18663     18666
     18659     18658     18660     18661     18659     18658     18660     18662
     18659     18658     18660     18663     18660     18663     18666     18667
     18660     18663     18666     18668     18660     18663     18666     18669
     18661     18660     18663     18664     18661     18660     18663     18665
     18661     18660     18663     18666     18662     18660     18663     18664
     18662     18660     18663     18665     18662     18660     18663     18666
     18663     18666     18669     18670     18663     18666     18669     18671
     18663     18666     18669     18672     18664     18663     18666     18667
     18664     18663     18666     18668     18664     18663     18666     18669
     18665     18663     18666     18667     18665     18663     18666     18668
     18665     18663     18666     18669     18666     18669     18672     18673
     18666     18669     18672     18674     18666     18669     18672     18675
     18667     18666     18669     18670     18667     18666     18669     18671
     18667     18666     18669     18672     18668     18666     18669     18670
     18668     18666     18669     18671     18668     18666     18669     18672
     18669     18672     18675     18676     18669     18672     18675     18677
     18669     18672     18675     18678     18670     18669     18672     18673
     18670     18669     18672     18674     18670     18669     18672     18675
     18671     18669     18672     18673     18671     18669     18672     18674
     18671     18669     18672     18675     18672     18675     18678     18679
     18672     18675     18678     18680     18672     18675     18678     18681
     18673     18672     18675     18676     18673     18672     18675     18677
     18673     18672     18675     18678     18674     18672     18675     18676
     18674     18672     18675     18677     18674     18672     18675     18678
     18675     18678     18681     18682     18675     18678     18681     18683
     18675     18678     18681     18684     18676     18675     18678     18679
     18676     18675     18678     18680     18676     18675     18678     18681
     18677     18675     18678     18679     18677     18675     18678     18680
     18677     18675     18678     18681     18679     18678     18681     18682
     18679     18678     18681     18683     18679     18678     18681     18684
     18680     18678     18681     18682     18680     18678     18681     18683
     18680     18678     18681     18684     18685     18686     18701     18702
     18685     18686     18701     18703     18685     18686     18701     18707
     18686     18685     18689     18690     18686     18685     18689     18691
     18686     18685     18689     18692     18686     18685     18693     18694
     18686     18685     18693     18695     18686     18685     18693     18696
     18686     18685     18697     18698     18686     18685     18697     18699
     18686     18685     18697     18700     18686     18701     18707     18704
     18687     18686     18685     18689     18687     18686     18685     18693
     18687     18686     18685     18697     18687     18686     18701     18702
     18687     18686     18701     18703     18687     18686     18701     18707
     18688     18686     18685     18689     18688     18686     18685     18693
     18688     18686     18685     18697     18688     18686     18701     18702
     18688     18686     18701     18703     18688     18686     18701     18707
     18689     18685     18686     18701     18689     18685     18693     18694
     18689     18685     18693     18695     18689     18685     18693     18696
     18689     18685     18697     18698     18689     18685     18697     18699
     18689     18685     18697     18700     18690     18689     18685     18693
     18690     18689     18685     18697     18691     18689     18685     18693
     18691     18689     18685     18697     18692     18689     18685     18693
     18692     18689     18685     18697     18693     18685     18686     18701
     18693     18685     18697     18698     18693     18685     18697     18699
     18693     18685     18697     18700     18694     18693     18685     18697
     18695     18693     18685     18697     18696     18693     18685     18697
     18697     18685     18686     18701     18701     18707     18704     18705
     18701     18707     18704     18706     18701     18707     18704     18708
     18702     18701     18707     18704     18703     18701     18707     18704
     18704     18708     18709     18710     18704     18708     18709     18711
     18704     18708     18709     18712     18705     18704     18708     18709
     18706     18704     18708     18709     18707     18704     18708     18709
     18708     18709     18712     18713     18708     18709     18712     18714
     18708     18709     18712     18720     18709     18712     18714     18715
     18709     18712     18720     18721     18709     18712     18720     18722
     18709     18712     18720     18723     18710     18709     18712     18713
     18710     18709     18712     18714     18710     18709     18712     18720
     18711     18709     18712     18713     18711     18709     18712     18714
     18711     18709     18712     18720     18712     18714     18715     18716
     18712     18714     18715     18717     18712     18720     18723     18724
     18713     18712     18714     18715     18713     18712     18720     18721
     18713     18712     18720     18722     18713     18712     18720     18723
     18714     18712     18720     18721     18714     18712     18720     18722
     18714     18712     18720     18723     18714     18715     18717     18718
     18714     18715     18717     18719     18714     18715     18717     18729
     18715     18714     18712     18720     18715     18717     18729     18730
     18715     18717     18729     18731     18715     18717     18729     18732
     18716     18715     18717     18718     18716     18715     18717     18719
     18716     18715     18717     18729     18717     18729     18732     18733
     18717     18729     18732     18734     18717     18729     18732     18735
     18718     18717     18729     18730     18718     18717     18729     18731
     18718     18717     18729     18732     18719     18717     18729     18730
     18719     18717     18729     18731     18719     18717     18729     18732
     18720     18723     18724     18725     18720     18723     18724     18726
     18721     18720     18723     18724     18722     18720     18723     18724
     18723     18724     18726     18727     18723     18724     18726     18728
     18723     18724     18726     18776     18724     18726     18776     18777
     18724     18726     18776     18778     18724     18726     18776     18779
     18725     18724     18726     18727     18725     18724     18726     18728
     18725     18724     18726     18776     18726     18776     18779     18780
     18726     18776     18779     18781     18726     18776     18779     18782
     18727     18726     18776     18777     18727     18726     18776     18778
     18727     18726     18776     18779     18728     18726     18776     18777
     18728     18726     18776     18778     18728     18726     18776     18779
     18729     18732     18735     18736     18729     18732     18735     18737
     18730     18729     18732     18733     18730     18729     18732     18734
     18730     18729     18732     18735     18731     18729     18732     18733
     18731     18729     18732     18734     18731     18729     18732     18735
     18732     18735     18737     18738     18732     18735     18737     18739
     18733     18732     18735     18736     18733     18732     18735     18737
     18734     18732     18735     18736     18734     18732     18735     18737
     18735     18737     18739     18740     18735     18737     18739     18741
     18735     18737     18739     18742     18736     18735     18737     18738
     18736     18735     18737     18739     18737     18739     18742     18743
     18737     18739     18742     18744     18738     18737     18739     18740
     18738     18737     18739     18741     18738     18737     18739     18742
     18739     18742     18744     18745     18739     18742     18744     18746
     18740     18739     18742     18743     18740     18739     18742     18744
     18741     18739     18742     18743     18741     18739     18742     18744
     18742     18744     18746     18747     18742     18744     18746     18748
     18742     18744     18746     18749     18743     18742     18744     18745
     18743     18742     18744     18746     18744     18746     18749     18750
     18744     18746     18749     18751     18745     18744     18746     18747
     18745     18744     18746     18748     18745     18744     18746     18749
     18746     18749     18751     18752     18746     18749     18751     18753
     18747     18746     18749     18750     18747     18746     18749     18751
     18748     18746     18749     18750     18748     18746     18749     18751
     18749     18751     18753     18754     18749     18751     18753     18755
     18749     18751     18753     18756     18750     18749     18751     18752
     18750     18749     18751     18753     18751     18753     18756     18757
     18751     18753     18756     18758     18752     18751     18753     18754
     18752     18751     18753     18755     18752     18751     18753     18756
     18753     18756     18758     18759     18753     18756     18758     18760
     18754     18753     18756     18757     18754     18753     18756     18758
     18755     18753     18756     18757     18755     18753     18756     18758
     18756     18758     18760     18761     18756     18758     18760     18762
     18756     18758     18760     18763     18757     18756     18758     18759
     18757     18756     18758     18760     18758     18760     18763     18764
     18758     18760     18763     18765     18758     18760     18763     18766
     18759     18758     18760     18761     18759     18758     18760     18762
     18759     18758     18760     18763     18760     18763     18766     18767
     18760     18763     18766     18768     18760     18763     18766     18769
     18761     18760     18763     18764     18761     18760     18763     18765
     18761     18760     18763     18766     18762     18760     18763     18764
     18762     18760     18763     18765     18762     18760     18763     18766
     18763     18766     18769     18770     18763     18766     18769     18771
     18763     18766     18769     18772     18764     18763     18766     18767
     18764     18763     18766     18768     18764     18763     18766     18769
     18765     18763     18766     18767     18765     18763     18766     18768
     18765     18763     18766     18769     18766     18769     18772     18773
     18766     18769     18772     18774     18766     18769     18772     18775
     18767     18766     18769     18770     18767     18766     18769     18771
     18767     18766     18769     18772     18768     18766     18769     18770
     18768     18766     18769     18771     18768     18766     18769     18772
     18770     18769     18772     18773     18770     18769     18772     18774
     18770     18769     18772     18775     18771     18769     18772     18773
     18771     18769     18772     18774     18771     18769     18772     18775
     18776     18779     18782     18783     18776     18779     18782     18784
     18776     18779     18782     18785     18777     18776     18779     18780
     18777     18776     18779     18781     18777     18776     18779     18782
     18778     18776     18779     18780     18778     18776     18779     18781
     18778     18776     18779     18782     18779     18782     18785     18786
     18779     18782     18785     18787     18779     18782     18785     18788
     18780     18779     18782     18783     18780     18779     18782     18784
     18780     18779     18782     18785     18781     18779     18782     18783
     18781     18779     18782     18784     18781     18779     18782     18785
     18782     18785     18788     18789     18782     18785     18788     18790
     18782     18785     18788     18791     18783     18782     18785     18786
     18783     18782     18785     18787     18783     18782     18785     18788
     18784     18782     18785     18786     18784     18782     18785     18787
     18784     18782     18785     18788     18785     18788     18791     18792
     18785     18788     18791     18793     18785     18788     18791     18794
     18786     18785     18788     18789     18786     18785     18788     18790
     18786     18785     18788     18791     18787     18785     18788     18789
     18787     18785     18788     18790     18787     18785     18788     18791
     18788     18791     18794     18795     18788     18791     18794     18796
     18788     18791     18794     18797     18789     18788     18791     18792
     18789     18788     18791     18793     18789     18788     18791     18794
     18790     18788     18791     18792     18790     18788     18791     18793
     18790     18788     18791     18794     18791     18794     18797     18798
     18791     18794     18797     18799     18791     18794     18797     18800
     18792     18791     18794     18795     18792     18791     18794     18796
     18792     18791     18794     18797     18793     18791     18794     18795
     18793     18791     18794     18796     18793     18791     18794     18797
     18794     18797     18800     18801     18794     18797     18800     18802
     18794     18797     18800     18803     18795     18794     18797     18798
     18795     18794     18797     18799     18795     18794     18797     18800
     18796     18794     18797     18798     18796     18794     18797     18799
     18796     18794     18797     18800     18797     18800     18803     18804
     18797     18800     18803     18805     18797     18800     18803     18806
     18798     18797     18800     18801     18798     18797     18800     18802
     18798     18797     18800     18803     18799     18797     18800     18801
     18799     18797     18800     18802     18799     18797     18800     18803
     18800     18803     18806     18807     18800     18803     18806     18808
     18800     18803     18806     18809     18801     18800     18803     18804
     18801     18800     18803     18805     18801     18800     18803     18806
     18802     18800     18803     18804     18802     18800     18803     18805
     18802     18800     18803     18806     18803     18806     18809     18810
     18803     18806     18809     18811     18803     18806     18809     18812
     18804     18803     18806     18807     18804     18803     18806     18808
     18804     18803     18806     18809     18805     18803     18806     18807
     18805     18803     18806     18808     18805     18803     18806     18809
     18806     18809     18812     18813     18806     18809     18812     18814
     18806     18809     18812     18815     18807     18806     18809     18810
     18807     18806     18809     18811     18807     18806     18809     18812
     18808     18806     18809     18810     18808     18806     18809     18811
     18808     18806     18809     18812     18809     18812     18815     18816
     18809     18812     18815     18817     18809     18812     18815     18818
     18810     18809     18812     18813     18810     18809     18812     18814
     18810     18809     18812     18815     18811     18809     18812     18813
     18811     18809     18812     18814     18811     18809     18812     18815
     18812     18815     18818     18819     18812     18815     18818     18820
     18812     18815     18818     18821     18813     18812     18815     18816
     18813     18812     18815     18817     18813     18812     18815     18818
     18814     18812     18815     18816     18814     18812     18815     18817
     18814     18812     18815     18818     18815     18818     18821     18822
     18815     18818     18821     18823     18815     18818     18821     18824
     18816     18815     18818     18819     18816     18815     18818     18820
     18816     18815     18818     18821     18817     18815     18818     18819
     18817     18815     18818     18820     18817     18815     18818     18821
     18819     18818     18821     18822     18819     18818     18821     18823
     18819     18818     18821     18824     18820     18818     18821     18822
     18820     18818     18821     18823     18820     18818     18821     18824
     18825     18829     18832     18833     18825     18829     18832     18863
     18825     18871     18868     18863     18825     18871     18868     18869
     18825     18871     18868     18870     18826     18825     18827     18828
     18826     18825     18829     18830     18826     18825     18829     18831
     18826     18825     18829     18832     18826     18825     18871     18868
     18826     18825     18871     18872     18826     18825     18871     18873
     18827     18825     18829     18830     18827     18825     18829     18831
     18827     18825     18829     18832     18827     18825     18871     18868
     18827     18825     18871     18872     18827     18825     18871     18873
     18828     18827     18825     18829     18828     18827     18825     18871
     18829     18825     18871     18868     18829     18825     18871     18872
     18829     18825     18871     18873     18829     18832     18833     18834
     18829     18832     18833     18835     18829     18832     18863     18861
     18829     18832     18863     18864     18829     18832     18863     18868
     18830     18829     18825     18871     18830     18829     18832     18833
     18830     18829     18832     18863     18831     18829     18825     18871
     18831     18829     18832     18833     18831     18829     18832     18863
     18832     18829     18825     18871     18832     18833     18835     18836
     18832     18833     18835     18837     18832     18833     18835     18838
     18832     18863     18861     18838     18832     18863     18861     18858
     18832     18863     18861     18862     18832     18863     18864     18865
     18832     18863     18864     18866     18832     18863     18864     18867
     18832     18863     18868     18869     18832     18863     18868     18870
     18832     18863     18868     18871     18833     18832     18863     18861
     18833     18832     18863     18864     18833     18832     18863     18868
     18833     18835     18838     18839     18833     18835     18838     18840
     18833     18835     18838     18861     18834     18833     18832     18863
     18834     18833     18835     18836     18834     18833     18835     18837
     18834     18833     18835     18838     18835     18833     18832     18863
     18835     18838     18840     18841     18835     18838     18840     18842
     18835     18838     18840     18850     18835     18838     18861     18858
     18835     18838     18861     18862     18835     18838     18861     18863
     18836     18835     18838     18839     18836     18835     18838     18840
     18836     18835     18838     18861     18837     18835     18838     18839
     18837     18835     18838     18840     18837     18835     18838     18861
     18838     18840     18842     18843     18838     18840     18842     18844
     18838     18840     18842     18845     18838     18840     18850     18848
     18838     18840     18850     18851     18838     18840     18850     18855
     18838     18861     18858     18855     18838     18861     18858     18859
     18838     18861     18858     18860     18838     18861     18863     18864
     18838     18861     18863     18868     18839     18838     18840     18841
     18839     18838     18840     18842     18839     18838     18840     18850
     18839     18838     18861     18858     18839     18838     18861     18862
     18839     18838     18861     18863     18840     18838     18861     18858
     18840     18838     18861     18862     18840     18838     18861     18863
     18840     18842     18845     18846     18840     18842     18845     18847
     18840     18842     18845     18848     18840     18850     18848     18845
     18840     18850     18848     18849     18840     18850     18848     18874
     18840     18850     18851     18852     18840     18850     18851     18853
     18840     18850     18851     18854     18840     18850     18855     18856
     18840     18850     18855     18857     18840     18850     18855     18858
     18841     18840     18838     18861     18841     18840     18842     18843
     18841     18840     18842     18844     18841     18840     18842     18845
     18841     18840     18850     18848     18841     18840     18850     18851
     18841     18840     18850     18855     18842     18840     18838     18861
     18842     18840     18850     18848     18842     18840     18850     18851
     18842     18840     18850     18855     18842     18845     18848     18849
     18842     18845     18848     18850     18842     18845     18848     18874
     18843     18842     18840     18850     18843     18842     18845     18846
     18843     18842     18845     18847     18843     18842     18845     18848
     18844     18842     18840     18850     18844     18842     18845     18846
     18844     18842     18845     18847     18844     18842     18845     18848
     18845     18842     18840     18850     18845     18848     18850     18851
     18845     18848     18850     18855     18845     18848     18874     18875
     18845     18848     18874     18876     18845     18848     18874     18880
     18846     18845     18848     18849     18846     18845     18848     18850
     18846     18845     18848     18874     18847     18845     18848     18849
     18847     18845     18848     18850     18847     18845     18848     18874
     18848     18850     18851     18852     18848     18850     18851     18853
     18848     18850     18851     18854     18848     18850     18855     18856
     18848     18850     18855     18857     18848     18850     18855     18858
     18848     18874     18876     18877     18848     18874     18876     18878
     18848     18874     18876     18879     18848     18874     18880     18881
     18848     18874     18880     18882     18848     18874     18880     18883
     18849     18848     18850     18851     18849     18848     18850     18855
     18849     18848     18874     18875     18849     18848     18874     18876
     18849     18848     18874     18880     18850     18840     18838     18861
     18850     18848     18874     18875     18850     18848     18874     18876
     18850     18848     18874     18880     18850     18855     18858     18859
     18850     18855     18858     18860     18850     18855     18858     18861
     18851     18850     18848     18874     18851     18850     18855     18856
     18851     18850     18855     18857     18851     18850     18855     18858
     18852     18851     18850     18855     18853     18851     18850     18855
     18854     18851     18850     18855     18855     18850     18848     18874
     18855     18858     18861     18862     18855     18858     18861     18863
     18856     18855     18858     18859     18856     18855     18858     18860
     18856     18855     18858     18861     18857     18855     18858     18859
     18857     18855     18858     18860     18857     18855     18858     18861
     18858     18861     18863     18864     18858     18861     18863     18868
     18859     18858     18861     18862     18859     18858     18861     18863
     18860     18858     18861     18862     18860     18858     18861     18863
     18861     18863     18864     18865     18861     18863     18864     18866
     18861     18863     18864     18867     18861     18863     18868     18869
     18861     18863     18868     18870     18861     18863     18868     18871
     18862     18861     18863     18864     18862     18861     18863     18868
     18863     18868     18871     18872     18863     18868     18871     18873
     18864     18863     18868     18869     18864     18863     18868     18870
     18864     18863     18868     18871     18865     18864     18863     18868
     18866     18864     18863     18868     18867     18864     18863     18868
     18869     18868     18871     18872     18869     18868     18871     18873
     18870     18868     18871     18872     18870     18868     18871     18873
     18874     18880     18883     18884     18874     18880     18883     18885
     18874     18880     18883     18886     18875     18874     18876     18877
     18875     18874     18876     18878     18875     18874     18876     18879
     18875     18874     18880     18881     18875     18874     18880     18882
     18875     18874     18880     18883     18876     18874     18880     18881
     18876     18874     18880     18882     18876     18874     18880     18883
     18877     18876     18874     18880     18878     18876     18874     18880
     18879     18876     18874     18880     18880     18883     18886     18887
     18880     18883     18886     18888     18880     18883     18886     18889
     18881     18880     18883     18884     18881     18880     18883     18885
     18881     18880     18883     18886     18882     18880     18883     18884
     18882     18880     18883     18885     18882     18880     18883     18886
     18883     18886     18889     18890     18883     18886     18889     18891
     18883     18886     18889     18895     18884     18883     18886     18887
     18884     18883     18886     18888     18884     18883     18886     18889
     18885     18883     18886     18887     18885     18883     18886     18888
     18885     18883     18886     18889     18886     18889     18891     18892
     18886     18889     18891     18893     18886     18889     18891     18894
     18886     18889     18895     18896     18886     18889     18895     18897
     18886     18889     18895     18898     18887     18886     18889     18890
     18887     18886     18889     18891     18887     18886     18889     18895
     18888     18886     18889     18890     18888     18886     18889     18891
     18888     18886     18889     18895     18890     18889     18891     18892
     18890     18889     18891     18893     18890     18889     18891     18894
     18890     18889     18895     18896     18890     18889     18895     18897
     18890     18889     18895     18898     18891     18889     18895     18896
     18891     18889     18895     18897     18891     18889     18895     18898
     18892     18891     18889     18895     18893     18891     18889     18895
     18894     18891     18889     18895     18899     18903     18906     18907
     18899     18903     18906     18908     18899     18903     18906     18912
     18900     18899     18903     18904     18900     18899     18903     18905
     18900     18899     18903     18906     18901     18899     18903     18904
     18901     18899     18903     18905     18901     18899     18903     18906
     18902     18899     18903     18904     18902     18899     18903     18905
     18902     18899     18903     18906     18903     18906     18912     18909
     18904     18903     18906     18907     18904     18903     18906     18908
     18904     18903     18906     18912     18905     18903     18906     18907
     18905     18903     18906     18908     18905     18903     18906     18912
     18906     18912     18909     18910     18906     18912     18909     18911
     18906     18912     18909     18913     18907     18906     18912     18909
     18908     18906     18912     18909     18909     18913     18914     18915
     18909     18913     18914     18916     18909     18913     18914     18917
     18910     18909     18913     18914     18911     18909     18913     18914
     18912     18909     18913     18914     18913     18914     18917     18918
     18913     18914     18917     18919     18913     18914     18917     18925
     18914     18917     18919     18920     18914     18917     18925     18926
     18914     18917     18925     18927     18914     18917     18925     18928
     18915     18914     18917     18918     18915     18914     18917     18919
     18915     18914     18917     18925     18916     18914     18917     18918
     18916     18914     18917     18919     18916     18914     18917     18925
     18917     18919     18920     18921     18917     18919     18920     18922
     18917     18925     18928     18929     18918     18917     18919     18920
     18918     18917     18925     18926     18918     18917     18925     18927
     18918     18917     18925     18928     18919     18917     18925     18926
     18919     18917     18925     18927     18919     18917     18925     18928
     18919     18920     18922     18923     18919     18920     18922     18924
     18919     18920     18922     18934     18920     18919     18917     18925
     18920     18922     18934     18935     18920     18922     18934     18936
     18920     18922     18934     18937     18921     18920     18922     18923
     18921     18920     18922     18924     18921     18920     18922     18934
     18922     18934     18937     18938     18922     18934     18937     18939
     18922     18934     18937     18940     18923     18922     18934     18935
     18923     18922     18934     18936     18923     18922     18934     18937
     18924     18922     18934     18935     18924     18922     18934     18936
     18924     18922     18934     18937     18925     18928     18929     18930
     18925     18928     18929     18931     18926     18925     18928     18929
     18927     18925     18928     18929     18928     18929     18931     18932
     18928     18929     18931     18933     18928     18929     18931     18981
     18929     18931     18981     18982     18929     18931     18981     18983
     18929     18931     18981     18984     18930     18929     18931     18932
     18930     18929     18931     18933     18930     18929     18931     18981
     18931     18981     18984     18985     18931     18981     18984     18986
     18931     18981     18984     18987     18932     18931     18981     18982
     18932     18931     18981     18983     18932     18931     18981     18984
     18933     18931     18981     18982     18933     18931     18981     18983
     18933     18931     18981     18984     18934     18937     18940     18941
     18934     18937     18940     18942     18934     18937     18940     18943
     18935     18934     18937     18938     18935     18934     18937     18939
     18935     18934     18937     18940     18936     18934     18937     18938
     18936     18934     18937     18939     18936     18934     18937     18940
     18937     18940     18943     18944     18937     18940     18943     18945
     18937     18940     18943     18946     18938     18937     18940     18941
     18938     18937     18940     18942     18938     18937     18940     18943
     18939     18937     18940     18941     18939     18937     18940     18942
     18939     18937     18940     18943     18940     18943     18946     18947
     18940     18943     18946     18948     18940     18943     18946     18949
     18941     18940     18943     18944     18941     18940     18943     18945
     18941     18940     18943     18946     18942     18940     18943     18944
     18942     18940     18943     18945     18942     18940     18943     18946
     18943     18946     18949     18950     18943     18946     18949     18951
     18943     18946     18949     18952     18944     18943     18946     18947
     18944     18943     18946     18948     18944     18943     18946     18949
     18945     18943     18946     18947     18945     18943     18946     18948
     18945     18943     18946     18949     18946     18949     18952     18953
     18946     18949     18952     18954     18947     18946     18949     18950
     18947     18946     18949     18951     18947     18946     18949     18952
     18948     18946     18949     18950     18948     18946     18949     18951
     18948     18946     18949     18952     18949     18952     18954     18955
     18949     18952     18954     18956     18950     18949     18952     18953
     18950     18949     18952     18954     18951     18949     18952     18953
     18951     18949     18952     18954     18952     18954     18956     18957
     18952     18954     18956     18958     18952     18954     18956     18959
     18953     18952     18954     18955     18953     18952     18954     18956
     18954     18956     18959     18960     18954     18956     18959     18961
     18954     18956     18959     18962     18955     18954     18956     18957
     18955     18954     18956     18958     18955     18954     18956     18959
     18956     18959     18962     18963     18956     18959     18962     18964
     18956     18959     18962     18965     18957     18956     18959     18960
     18957     18956     18959     18961     18957     18956     18959     18962
     18958     18956     18959     18960     18958     18956     18959     18961
     18958     18956     18959     18962     18959     18962     18965     18966
     18959     18962     18965     18967     18959     18962     18965     18968
     18960     18959     18962     18963     18960     18959     18962     18964
     18960     18959     18962     18965     18961     18959     18962     18963
     18961     18959     18962     18964     18961     18959     18962     18965
     18962     18965     18968     18969     18962     18965     18968     18970
     18962     18965     18968     18971     18963     18962     18965     18966
     18963     18962     18965     18967     18963     18962     18965     18968
     18964     18962     18965     18966     18964     18962     18965     18967
     18964     18962     18965     18968     18965     18968     18971     18972
     18965     18968     18971     18973     18965     18968     18971     18974
     18966     18965     18968     18969     18966     18965     18968     18970
     18966     18965     18968     18971     18967     18965     18968     18969
     18967     18965     18968     18970     18967     18965     18968     18971
     18968     18971     18974     18975     18968     18971     18974     18976
     18968     18971     18974     18977     18969     18968     18971     18972
     18969     18968     18971     18973     18969     18968     18971     18974
     18970     18968     18971     18972     18970     18968     18971     18973
     18970     18968     18971     18974     18971     18974     18977     18978
     18971     18974     18977     18979     18971     18974     18977     18980
     18972     18971     18974     18975     18972     18971     18974     18976
     18972     18971     18974     18977     18973     18971     18974     18975
     18973     18971     18974     18976     18973     18971     18974     18977
     18975     18974     18977     18978     18975     18974     18977     18979
     18975     18974     18977     18980     18976     18974     18977     18978
     18976     18974     18977     18979     18976     18974     18977     18980
     18981     18984     18987     18988     18981     18984     18987     18989
     18981     18984     18987     18990     18982     18981     18984     18985
     18982     18981     18984     18986     18982     18981     18984     18987
     18983     18981     18984     18985     18983     18981     18984     18986
     18983     18981     18984     18987     18984     18987     18990     18991
     18984     18987     18990     18992     18984     18987     18990     18993
     18985     18984     18987     18988     18985     18984     18987     18989
     18985     18984     18987     18990     18986     18984     18987     18988
     18986     18984     18987     18989     18986     18984     18987     18990
     18987     18990     18993     18994     18987     18990     18993     18995
     18987     18990     18993     18996     18988     18987     18990     18991
     18988     18987     18990     18992     18988     18987     18990     18993
     18989     18987     18990     18991     18989     18987     18990     18992
     18989     18987     18990     18993     18990     18993     18996     18997
     18990     18993     18996     18998     18990     18993     18996     18999
     18991     18990     18993     18994     18991     18990     18993     18995
     18991     18990     18993     18996     18992     18990     18993     18994
     18992     18990     18993     18995     18992     18990     18993     18996
     18993     18996     18999     19000     18993     18996     18999     19001
     18993     18996     18999     19002     18994     18993     18996     18997
     18994     18993     18996     18998     18994     18993     18996     18999
     18995     18993     18996     18997     18995     18993     18996     18998
     18995     18993     18996     18999     18996     18999     19002     19003
     18996     18999     19002     19004     18996     18999     19002     19005
     18997     18996     18999     19000     18997     18996     18999     19001
     18997     18996     18999     19002     18998     18996     18999     19000
     18998     18996     18999     19001     18998     18996     18999     19002
     18999     19002     19005     19006     18999     19002     19005     19007
     18999     19002     19005     19008     19000     18999     19002     19003
     19000     18999     19002     19004     19000     18999     19002     19005
     19001     18999     19002     19003     19001     18999     19002     19004
     19001     18999     19002     19005     19002     19005     19008     19009
     19002     19005     19008     19010     19002     19005     19008     19011
     19003     19002     19005     19006     19003     19002     19005     19007
     19003     19002     19005     19008     19004     19002     19005     19006
     19004     19002     19005     19007     19004     19002     19005     19008
     19005     19008     19011     19012     19005     19008     19011     19013
     19005     19008     19011     19014     19006     19005     19008     19009
     19006     19005     19008     19010     19006     19005     19008     19011
     19007     19005     19008     19009     19007     19005     19008     19010
     19007     19005     19008     19011     19008     19011     19014     19015
     19008     19011     19014     19016     19008     19011     19014     19017
     19009     19008     19011     19012     19009     19008     19011     19013
     19009     19008     19011     19014     19010     19008     19011     19012
     19010     19008     19011     19013     19010     19008     19011     19014
     19011     19014     19017     19018     19011     19014     19017     19019
     19011     19014     19017     19020     19012     19011     19014     19015
     19012     19011     19014     19016     19012     19011     19014     19017
     19013     19011     19014     19015     19013     19011     19014     19016
     19013     19011     19014     19017     19014     19017     19020     19021
     19014     19017     19020     19022     19014     19017     19020     19023
     19015     19014     19017     19018     19015     19014     19017     19019
     19015     19014     19017     19020     19016     19014     19017     19018
     19016     19014     19017     19019     19016     19014     19017     19020
     19017     19020     19023     19024     19017     19020     19023     19025
     19017     19020     19023     19026     19018     19017     19020     19021
     19018     19017     19020     19022     19018     19017     19020     19023
     19019     19017     19020     19021     19019     19017     19020     19022
     19019     19017     19020     19023     19020     19023     19026     19027
     19020     19023     19026     19028     19020     19023     19026     19029
     19021     19020     19023     19024     19021     19020     19023     19025
     19021     19020     19023     19026     19022     19020     19023     19024
     19022     19020     19023     19025     19022     19020     19023     19026
     19024     19023     19026     19027     19024     19023     19026     19028
     19024     19023     19026     19029     19025     19023     19026     19027
     19025     19023     19026     19028     19025     19023     19026     19029
     19030     19043     19046     19047     19030     19043     19046     19048
     19030     19043     19046     19053     19031     19030     19035     19036
     19031     19030     19035     19037     19031     19030     19035     19038
     19031     19030     19039     19040     19031     19030     19039     19041
     19031     19030     19039     19042     19031     19030     19043     19044
     19031     19030     19043     19045     19031     19030     19043     19046
     19032     19031     19030     19035     19032     19031     19030     19039
     19032     19031     19030     19043     19033     19031     19030     19035
     19033     19031     19030     19039     19033     19031     19030     19043
     19034     19031     19030     19035     19034     19031     19030     19039
     19034     19031     19030     19043     19035     19030     19039     19040
     19035     19030     19039     19041     19035     19030     19039     19042
     19035     19030     19043     19044     19035     19030     19043     19045
     19035     19030     19043     19046     19036     19035     19030     19039
     19036     19035     19030     19043     19037     19035     19030     19039
     19037     19035     19030     19043     19038     19035     19030     19039
     19038     19035     19030     19043     19039     19030     19043     19044
     19039     19030     19043     19045     19039     19030     19043     19046
     19040     19039     19030     19043     19041     19039     19030     19043
     19042     19039     19030     19043     19043     19046     19053     19049
     19044     19043     19046     19047     19044     19043     19046     19048
     19044     19043     19046     19053     19045     19043     19046     19047
     19045     19043     19046     19048     19045     19043     19046     19053
     19046     19053     19049     19050     19046     19053     19049     19051
     19046     19053     19049     19052     19047     19046     19053     19049
     19048     19046     19053     19049     19049     19052     19054     19055
     19049     19052     19054     19056     19049     19052     19054     19059
     19050     19049     19052     19054     19051     19049     19052     19054
     19052     19054     19059     19057     19052     19054     19059     19060
     19052     19054     19059     19061     19053     19049     19052     19054
     19054     19059     19057     19058     19054     19059     19057     19109
     19054     19059     19061     19062     19054     19059     19061     19063
     19054     19059     19061     19065     19055     19054     19059     19057
     19055     19054     19059     19060     19055     19054     19059     19061
     19056     19054     19059     19057     19056     19054     19059     19060
     19056     19054     19059     19061     19057     19059     19061     19062
     19057     19059     19061     19063     19057     19059     19061     19065
     19057     19109     19111     19112     19057     19109     19111     19113
     19057     19109     19111     19114     19058     19057     19059     19060
     19058     19057     19059     19061     19058     19057     19109     19110
     19058     19057     19109     19111     19059     19057     19109     19110
     19059     19057     19109     19111     19059     19061     19063     19064
     19059     19061     19065     19066     19059     19061     19065     19067
     19060     19059     19057     19109     19060     19059     19061     19062
     19060     19059     19061     19063     19060     19059     19061     19065
     19061     19059     19057     19109     19061     19065     19067     19068
     19061     19065     19067     19069     19062     19061     19063     19064
     19062     19061     19065     19066     19062     19061     19065     19067
     19063     19061     19065     19066     19063     19061     19065     19067
     19064     19063     19061     19065     19065     19067     19069     19070
     19065     19067     19069     19071     19065     19067     19069     19072
     19066     19065     19067     19068     19066     19065     19067     19069
     19067     19069     19072     19073     19067     19069     19072     19074
     19067     19069     19072     19075     19068     19067     19069     19070
     19068     19067     19069     19071     19068     19067     19069     19072
     19069     19072     19075     19076     19069     19072     19075     19077
     19069     19072     19075     19078     19070     19069     19072     19073
     19070     19069     19072     19074     19070     19069     19072     19075
     19071     19069     19072     19073     19071     19069     19072     19074
     19071     19069     19072     19075     19072     19075     19078     19079
     19072     19075     19078     19080     19072     19075     19078     19081
     19073     19072     19075     19076     19073     19072     19075     19077
     19073     19072     19075     19078     19074     19072     19075     19076
     19074     19072     19075     19077     19074     19072     19075     19078
     19075     19078     19081     19082     19075     19078     19081     19083
     19075     19078     19081     19084     19076     19075     19078     19079
     19076     19075     19078     19080     19076     19075     19078     19081
     19077     19075     19078     19079     19077     19075     19078     19080
     19077     19075     19078     19081     19078     19081     19084     19085
     19078     19081     19084     19086     19078     19081     19084     19087
     19079     19078     19081     19082     19079     19078     19081     19083
     19079     19078     19081     19084     19080     19078     19081     19082
     19080     19078     19081     19083     19080     19078     19081     19084
     19081     19084     19087     19088     19081     19084     19087     19089
     19081     19084     19087     19090     19082     19081     19084     19085
     19082     19081     19084     19086     19082     19081     19084     19087
     19083     19081     19084     19085     19083     19081     19084     19086
     19083     19081     19084     19087     19084     19087     19090     19091
     19084     19087     19090     19092     19084     19087     19090     19093
     19085     19084     19087     19088     19085     19084     19087     19089
     19085     19084     19087     19090     19086     19084     19087     19088
     19086     19084     19087     19089     19086     19084     19087     19090
     19087     19090     19093     19094     19087     19090     19093     19095
     19087     19090     19093     19096     19088     19087     19090     19091
     19088     19087     19090     19092     19088     19087     19090     19093
     19089     19087     19090     19091     19089     19087     19090     19092
     19089     19087     19090     19093     19090     19093     19096     19097
     19090     19093     19096     19098     19090     19093     19096     19099
     19091     19090     19093     19094     19091     19090     19093     19095
     19091     19090     19093     19096     19092     19090     19093     19094
     19092     19090     19093     19095     19092     19090     19093     19096
     19093     19096     19099     19100     19093     19096     19099     19101
     19093     19096     19099     19102     19094     19093     19096     19097
     19094     19093     19096     19098     19094     19093     19096     19099
     19095     19093     19096     19097     19095     19093     19096     19098
     19095     19093     19096     19099     19096     19099     19102     19103
     19096     19099     19102     19104     19096     19099     19102     19105
     19097     19096     19099     19100     19097     19096     19099     19101
     19097     19096     19099     19102     19098     19096     19099     19100
     19098     19096     19099     19101     19098     19096     19099     19102
     19099     19102     19105     19106     19099     19102     19105     19107
     19099     19102     19105     19108     19100     19099     19102     19103
     19100     19099     19102     19104     19100     19099     19102     19105
     19101     19099     19102     19103     19101     19099     19102     19104
     19101     19099     19102     19105     19103     19102     19105     19106
     19103     19102     19105     19107     19103     19102     19105     19108
     19104     19102     19105     19106     19104     19102     19105     19107
     19104     19102     19105     19108     19109     19111     19114     19115
     19109     19111     19114     19116     19109     19111     19114     19117
     19110     19109     19111     19112     19110     19109     19111     19113
     19110     19109     19111     19114     19111     19114     19117     19118
     19111     19114     19117     19119     19111     19114     19117     19120
     19112     19111     19114     19115     19112     19111     19114     19116
     19112     19111     19114     19117     19113     19111     19114     19115
     19113     19111     19114     19116     19113     19111     19114     19117
     19114     19117     19120     19121     19114     19117     19120     19122
     19114     19117     19120     19123     19115     19114     19117     19118
     19115     19114     19117     19119     19115     19114     19117     19120
     19116     19114     19117     19118     19116     19114     19117     19119
     19116     19114     19117     19120     19117     19120     19123     19124
     19117     19120     19123     19125     19117     19120     19123     19126
     19118     19117     19120     19121     19118     19117     19120     19122
     19118     19117     19120     19123     19119     19117     19120     19121
     19119     19117     19120     19122     19119     19117     19120     19123
     19120     19123     19126     19127     19120     19123     19126     19128
     19120     19123     19126     19129     19121     19120     19123     19124
     19121     19120     19123     19125     19121     19120     19123     19126
     19122     19120     19123     19124     19122     19120     19123     19125
     19122     19120     19123     19126     19123     19126     19129     19130
     19123     19126     19129     19131     19123     19126     19129     19132
     19124     19123     19126     19127     19124     19123     19126     19128
     19124     19123     19126     19129     19125     19123     19126     19127
     19125     19123     19126     19128     19125     19123     19126     19129
     19126     19129     19132     19133     19126     19129     19132     19134
     19127     19126     19129     19130     19127     19126     19129     19131
     19127     19126     19129     19132     19128     19126     19129     19130
     19128     19126     19129     19131     19128     19126     19129     19132
     19129     19132     19134     19135     19129     19132     19134     19136
     19130     19129     19132     19133     19130     19129     19132     19134
     19131     19129     19132     19133     19131     19129     19132     19134
     19132     19134     19136     19137     19132     19134     19136     19138
     19132     19134     19136     19139     19133     19132     19134     19135
     19133     19132     19134     19136     19134     19136     19139     19140
     19134     19136     19139     19141     19134     19136     19139     19142
     19135     19134     19136     19137     19135     19134     19136     19138
     19135     19134     19136     19139     19136     19139     19142     19143
     19136     19139     19142     19144     19136     19139     19142     19145
     19137     19136     19139     19140     19137     19136     19139     19141
     19137     19136     19139     19142     19138     19136     19139     19140
     19138     19136     19139     19141     19138     19136     19139     19142
     19139     19142     19145     19146     19139     19142     19145     19147
     19139     19142     19145     19148     19140     19139     19142     19143
     19140     19139     19142     19144     19140     19139     19142     19145
     19141     19139     19142     19143     19141     19139     19142     19144
     19141     19139     19142     19145     19142     19145     19148     19149
     19142     19145     19148     19150     19142     19145     19148     19151
     19143     19142     19145     19146     19143     19142     19145     19147
     19143     19142     19145     19148     19144     19142     19145     19146
     19144     19142     19145     19147     19144     19142     19145     19148
     19145     19148     19151     19152     19145     19148     19151     19153
     19145     19148     19151     19154     19146     19145     19148     19149
     19146     19145     19148     19150     19146     19145     19148     19151
     19147     19145     19148     19149     19147     19145     19148     19150
     19147     19145     19148     19151     19148     19151     19154     19155
     19148     19151     19154     19156     19148     19151     19154     19157
     19149     19148     19151     19152     19149     19148     19151     19153
     19149     19148     19151     19154     19150     19148     19151     19152
     19150     19148     19151     19153     19150     19148     19151     19154
     19151     19154     19157     19158     19151     19154     19157     19159
     19151     19154     19157     19160     19152     19151     19154     19155
     19152     19151     19154     19156     19152     19151     19154     19157
     19153     19151     19154     19155     19153     19151     19154     19156
     19153     19151     19154     19157     19155     19154     19157     19158
     19155     19154     19157     19159     19155     19154     19157     19160
     19156     19154     19157     19158     19156     19154     19157     19159
     19156     19154     19157     19160     19161     19165     19168     19169
     19161     19165     19168     19170     19161     19165     19168     19174
     19162     19161     19165     19166     19162     19161     19165     19167
     19162     19161     19165     19168     19163     19161     19165     19166
     19163     19161     19165     19167     19163     19161     19165     19168
     19164     19161     19165     19166     19164     19161     19165     19167
     19164     19161     19165     19168     19165     19168     19174     19171
     19166     19165     19168     19169     19166     19165     19168     19170
     19166     19165     19168     19174     19167     19165     19168     19169
     19167     19165     19168     19170     19167     19165     19168     19174
     19168     19174     19171     19172     19168     19174     19171     19173
     19168     19174     19171     19175     19169     19168     19174     19171
     19170     19168     19174     19171     19171     19175     19176     19177
     19171     19175     19176     19178     19171     19175     19176     19179
     19172     19171     19175     19176     19173     19171     19175     19176
     19174     19171     19175     19176     19175     19176     19179     19180
     19175     19176     19179     19181     19175     19176     19179     19187
     19176     19179     19181     19182     19176     19179     19187     19188
     19176     19179     19187     19189     19176     19179     19187     19190
     19177     19176     19179     19180     19177     19176     19179     19181
     19177     19176     19179     19187     19178     19176     19179     19180
     19178     19176     19179     19181     19178     19176     19179     19187
     19179     19181     19182     19183     19179     19181     19182     19184
     19179     19187     19190     19191     19180     19179     19181     19182
     19180     19179     19187     19188     19180     19179     19187     19189
     19180     19179     19187     19190     19181     19179     19187     19188
     19181     19179     19187     19189     19181     19179     19187     19190
     19181     19182     19184     19185     19181     19182     19184     19186
     19181     19182     19184     19196     19182     19181     19179     19187
     19182     19184     19196     19197     19182     19184     19196     19198
     19182     19184     19196     19199     19183     19182     19184     19185
     19183     19182     19184     19186     19183     19182     19184     19196
     19184     19196     19199     19200     19184     19196     19199     19201
     19184     19196     19199     19202     19185     19184     19196     19197
     19185     19184     19196     19198     19185     19184     19196     19199
     19186     19184     19196     19197     19186     19184     19196     19198
     19186     19184     19196     19199     19187     19190     19191     19192
     19187     19190     19191     19193     19188     19187     19190     19191
     19189     19187     19190     19191     19190     19191     19193     19194
     19190     19191     19193     19195     19190     19191     19193     19243
     19191     19193     19243     19244     19191     19193     19243     19245
     19191     19193     19243     19246     19192     19191     19193     19194
     19192     19191     19193     19195     19192     19191     19193     19243
     19193     19243     19246     19247     19193     19243     19246     19248
     19193     19243     19246     19249     19194     19193     19243     19244
     19194     19193     19243     19245     19194     19193     19243     19246
     19195     19193     19243     19244     19195     19193     19243     19245
     19195     19193     19243     19246     19196     19199     19202     19203
     19196     19199     19202     19204     19197     19196     19199     19200
     19197     19196     19199     19201     19197     19196     19199     19202
     19198     19196     19199     19200     19198     19196     19199     19201
     19198     19196     19199     19202     19199     19202     19204     19205
     19199     19202     19204     19206     19200     19199     19202     19203
     19200     19199     19202     19204     19201     19199     19202     19203
     19201     19199     19202     19204     19202     19204     19206     19207
     19202     19204     19206     19208     19202     19204     19206     19209
     19203     19202     19204     19205     19203     19202     19204     19206
     19204     19206     19209     19210     19204     19206     19209     19211
     19205     19204     19206     19207     19205     19204     19206     19208
     19205     19204     19206     19209     19206     19209     19211     19212
     19206     19209     19211     19213     19207     19206     19209     19210
     19207     19206     19209     19211     19208     19206     19209     19210
     19208     19206     19209     19211     19209     19211     19213     19214
     19209     19211     19213     19215     19209     19211     19213     19216
     19210     19209     19211     19212     19210     19209     19211     19213
     19211     19213     19216     19217     19211     19213     19216     19218
     19212     19211     19213     19214     19212     19211     19213     19215
     19212     19211     19213     19216     19213     19216     19218     19219
     19213     19216     19218     19220     19214     19213     19216     19217
     19214     19213     19216     19218     19215     19213     19216     19217
     19215     19213     19216     19218     19216     19218     19220     19221
     19216     19218     19220     19222     19216     19218     19220     19223
     19217     19216     19218     19219     19217     19216     19218     19220
     19218     19220     19223     19224     19218     19220     19223     19225
     19219     19218     19220     19221     19219     19218     19220     19222
     19219     19218     19220     19223     19220     19223     19225     19226
     19220     19223     19225     19227     19221     19220     19223     19224
     19221     19220     19223     19225     19222     19220     19223     19224
     19222     19220     19223     19225     19223     19225     19227     19228
     19223     19225     19227     19229     19223     19225     19227     19230
     19224     19223     19225     19226     19224     19223     19225     19227
     19225     19227     19230     19231     19225     19227     19230     19232
     19225     19227     19230     19233     19226     19225     19227     19228
     19226     19225     19227     19229     19226     19225     19227     19230
     19227     19230     19233     19234     19227     19230     19233     19235
     19227     19230     19233     19236     19228     19227     19230     19231
     19228     19227     19230     19232     19228     19227     19230     19233
     19229     19227     19230     19231     19229     19227     19230     19232
     19229     19227     19230     19233     19230     19233     19236     19237
     19230     19233     19236     19238     19230     19233     19236     19239
     19231     19230     19233     19234     19231     19230     19233     19235
     19231     19230     19233     19236     19232     19230     19233     19234
     19232     19230     19233     19235     19232     19230     19233     19236
     19233     19236     19239     19240     19233     19236     19239     19241
     19233     19236     19239     19242     19234     19233     19236     19237
     19234     19233     19236     19238     19234     19233     19236     19239
     19235     19233     19236     19237     19235     19233     19236     19238
     19235     19233     19236     19239     19237     19236     19239     19240
     19237     19236     19239     19241     19237     19236     19239     19242
     19238     19236     19239     19240     19238     19236     19239     19241
     19238     19236     19239     19242     19243     19246     19249     19250
     19243     19246     19249     19251     19243     19246     19249     19252
     19244     19243     19246     19247     19244     19243     19246     19248
     19244     19243     19246     19249     19245     19243     19246     19247
     19245     19243     19246     19248     19245     19243     19246     19249
     19246     19249     19252     19253     19246     19249     19252     19254
     19246     19249     19252     19255     19247     19246     19249     19250
     19247     19246     19249     19251     19247     19246     19249     19252
     19248     19246     19249     19250     19248     19246     19249     19251
     19248     19246     19249     19252     19249     19252     19255     19256
     19249     19252     19255     19257     19249     19252     19255     19258
     19250     19249     19252     19253     19250     19249     19252     19254
     19250     19249     19252     19255     19251     19249     19252     19253
     19251     19249     19252     19254     19251     19249     19252     19255
     19252     19255     19258     19259     19252     19255     19258     19260
     19252     19255     19258     19261     19253     19252     19255     19256
     19253     19252     19255     19257     19253     19252     19255     19258
     19254     19252     19255     19256     19254     19252     19255     19257
     19254     19252     19255     19258     19255     19258     19261     19262
     19255     19258     19261     19263     19255     19258     19261     19264
     19256     19255     19258     19259     19256     19255     19258     19260
     19256     19255     19258     19261     19257     19255     19258     19259
     19257     19255     19258     19260     19257     19255     19258     19261
     19258     19261     19264     19265     19258     19261     19264     19266
     19258     19261     19264     19267     19259     19258     19261     19262
     19259     19258     19261     19263     19259     19258     19261     19264
     19260     19258     19261     19262     19260     19258     19261     19263
     19260     19258     19261     19264     19261     19264     19267     19268
     19261     19264     19267     19269     19261     19264     19267     19270
     19262     19261     19264     19265     19262     19261     19264     19266
     19262     19261     19264     19267     19263     19261     19264     19265
     19263     19261     19264     19266     19263     19261     19264     19267
     19264     19267     19270     19271     19264     19267     19270     19272
     19264     19267     19270     19273     19265     19264     19267     19268
     19265     19264     19267     19269     19265     19264     19267     19270
     19266     19264     19267     19268     19266     19264     19267     19269
     19266     19264     19267     19270     19267     19270     19273     19274
     19267     19270     19273     19275     19267     19270     19273     19276
     19268     19267     19270     19271     19268     19267     19270     19272
     19268     19267     19270     19273     19269     19267     19270     19271
     19269     19267     19270     19272     19269     19267     19270     19273
     19270     19273     19276     19277     19270     19273     19276     19278
     19270     19273     19276     19279     19271     19270     19273     19274
     19271     19270     19273     19275     19271     19270     19273     19276
     19272     19270     19273     19274     19272     19270     19273     19275
     19272     19270     19273     19276     19273     19276     19279     19280
     19273     19276     19279     19281     19273     19276     19279     19282
     19274     19273     19276     19277     19274     19273     19276     19278
     19274     19273     19276     19279     19275     19273     19276     19277
     19275     19273     19276     19278     19275     19273     19276     19279
     19276     19279     19282     19283     19276     19279     19282     19284
     19276     19279     19282     19285     19277     19276     19279     19280
     19277     19276     19279     19281     19277     19276     19279     19282
     19278     19276     19279     19280     19278     19276     19279     19281
     19278     19276     19279     19282     19279     19282     19285     19286
     19279     19282     19285     19287     19279     19282     19285     19288
     19280     19279     19282     19283     19280     19279     19282     19284
     19280     19279     19282     19285     19281     19279     19282     19283
     19281     19279     19282     19284     19281     19279     19282     19285
     19282     19285     19288     19289     19282     19285     19288     19290
     19282     19285     19288     19291     19283     19282     19285     19286
     19283     19282     19285     19287     19283     19282     19285     19288
     19284     19282     19285     19286     19284     19282     19285     19287
     19284     19282     19285     19288     19286     19285     19288     19289
     19286     19285     19288     19290     19286     19285     19288     19291
     19287     19285     19288     19289     19287     19285     19288     19290
     19287     19285     19288     19291     19292     19296     19298     19299
     19292     19296     19298     19300     19292     19296     19301     19302
     19292     19296     19301     19303     19292     19296     19301     19307
     19293     19292     19296     19297     19293     19292     19296     19298
     19293     19292     19296     19301     19294     19292     19296     19297
     19294     19292     19296     19298     19294     19292     19296     19301
     19295     19292     19296     19297     19295     19292     19296     19298
     19295     19292     19296     19301     19296     19301     19307     19304
     19297     19296     19298     19299     19297     19296     19298     19300
     19297     19296     19301     19302     19297     19296     19301     19303
     19297     19296     19301     19307     19298     19296     19301     19302
     19298     19296     19301     19303     19298     19296     19301     19307
     19299     19298     19296     19301     19300     19298     19296     19301
     19301     19307     19304     19305     19301     19307     19304     19306
     19301     19307     19304     19308     19302     19301     19307     19304
     19303     19301     19307     19304     19304     19308     19309     19310
     19304     19308     19309     19311     19304     19308     19309     19312
     19305     19304     19308     19309     19306     19304     19308     19309
     19307     19304     19308     19309     19308     19309     19312     19313
     19308     19309     19312     19314     19308     19309     19312     19320
     19309     19312     19314     19315     19309     19312     19320     19321
     19309     19312     19320     19322     19309     19312     19320     19323
     19310     19309     19312     19313     19310     19309     19312     19314
     19310     19309     19312     19320     19311     19309     19312     19313
     19311     19309     19312     19314     19311     19309     19312     19320
     19312     19314     19315     19316     19312     19314     19315     19317
     19312     19320     19323     19324     19313     19312     19314     19315
     19313     19312     19320     19321     19313     19312     19320     19322
     19313     19312     19320     19323     19314     19312     19320     19321
     19314     19312     19320     19322     19314     19312     19320     19323
     19314     19315     19317     19318     19314     19315     19317     19319
     19314     19315     19317     19329     19315     19314     19312     19320
     19315     19317     19329     19330     19315     19317     19329     19331
     19315     19317     19329     19332     19316     19315     19317     19318
     19316     19315     19317     19319     19316     19315     19317     19329
     19317     19329     19332     19333     19317     19329     19332     19334
     19317     19329     19332     19335     19318     19317     19329     19330
     19318     19317     19329     19331     19318     19317     19329     19332
     19319     19317     19329     19330     19319     19317     19329     19331
     19319     19317     19329     19332     19320     19323     19324     19325
     19320     19323     19324     19326     19321     19320     19323     19324
     19322     19320     19323     19324     19323     19324     19326     19327
     19323     19324     19326     19328     19323     19324     19326     19376
     19324     19326     19376     19377     19324     19326     19376     19378
     19324     19326     19376     19379     19325     19324     19326     19327
     19325     19324     19326     19328     19325     19324     19326     19376
     19326     19376     19379     19380     19326     19376     19379     19381
     19326     19376     19379     19382     19327     19326     19376     19377
     19327     19326     19376     19378     19327     19326     19376     19379
     19328     19326     19376     19377     19328     19326     19376     19378
     19328     19326     19376     19379     19329     19332     19335     19336
     19329     19332     19335     19337     19330     19329     19332     19333
     19330     19329     19332     19334     19330     19329     19332     19335
     19331     19329     19332     19333     19331     19329     19332     19334
     19331     19329     19332     19335     19332     19335     19337     19338
     19332     19335     19337     19339     19333     19332     19335     19336
     19333     19332     19335     19337     19334     19332     19335     19336
     19334     19332     19335     19337     19335     19337     19339     19340
     19335     19337     19339     19341     19335     19337     19339     19342
     19336     19335     19337     19338     19336     19335     19337     19339
     19337     19339     19342     19343     19337     19339     19342     19344
     19338     19337     19339     19340     19338     19337     19339     19341
     19338     19337     19339     19342     19339     19342     19344     19345
     19339     19342     19344     19346     19340     19339     19342     19343
     19340     19339     19342     19344     19341     19339     19342     19343
     19341     19339     19342     19344     19342     19344     19346     19347
     19342     19344     19346     19348     19342     19344     19346     19349
     19343     19342     19344     19345     19343     19342     19344     19346
     19344     19346     19349     19350     19344     19346     19349     19351
     19345     19344     19346     19347     19345     19344     19346     19348
     19345     19344     19346     19349     19346     19349     19351     19352
     19346     19349     19351     19353     19347     19346     19349     19350
     19347     19346     19349     19351     19348     19346     19349     19350
     19348     19346     19349     19351     19349     19351     19353     19354
     19349     19351     19353     19355     19349     19351     19353     19356
     19350     19349     19351     19352     19350     19349     19351     19353
     19351     19353     19356     19357     19351     19353     19356     19358
     19352     19351     19353     19354     19352     19351     19353     19355
     19352     19351     19353     19356     19353     19356     19358     19359
     19353     19356     19358     19360     19354     19353     19356     19357
     19354     19353     19356     19358     19355     19353     19356     19357
     19355     19353     19356     19358     19356     19358     19360     19361
     19356     19358     19360     19362     19356     19358     19360     19363
     19357     19356     19358     19359     19357     19356     19358     19360
     19358     19360     19363     19364     19358     19360     19363     19365
     19358     19360     19363     19366     19359     19358     19360     19361
     19359     19358     19360     19362     19359     19358     19360     19363
     19360     19363     19366     19367     19360     19363     19366     19368
     19360     19363     19366     19369     19361     19360     19363     19364
     19361     19360     19363     19365     19361     19360     19363     19366
     19362     19360     19363     19364     19362     19360     19363     19365
     19362     19360     19363     19366     19363     19366     19369     19370
     19363     19366     19369     19371     19363     19366     19369     19372
     19364     19363     19366     19367     19364     19363     19366     19368
     19364     19363     19366     19369     19365     19363     19366     19367
     19365     19363     19366     19368     19365     19363     19366     19369
     19366     19369     19372     19373     19366     19369     19372     19374
     19366     19369     19372     19375     19367     19366     19369     19370
     19367     19366     19369     19371     19367     19366     19369     19372
     19368     19366     19369     19370     19368     19366     19369     19371
     19368     19366     19369     19372     19370     19369     19372     19373
     19370     19369     19372     19374     19370     19369     19372     19375
     19371     19369     19372     19373     19371     19369     19372     19374
     19371     19369     19372     19375     19376     19379     19382     19383
     19376     19379     19382     19384     19376     19379     19382     19385
     19377     19376     19379     19380     19377     19376     19379     19381
     19377     19376     19379     19382     19378     19376     19379     19380
     19378     19376     19379     19381     19378     19376     19379     19382
     19379     19382     19385     19386     19379     19382     19385     19387
     19379     19382     19385     19388     19380     19379     19382     19383
     19380     19379     19382     19384     19380     19379     19382     19385
     19381     19379     19382     19383     19381     19379     19382     19384
     19381     19379     19382     19385     19382     19385     19388     19389
     19382     19385     19388     19390     19382     19385     19388     19391
     19383     19382     19385     19386     19383     19382     19385     19387
     19383     19382     19385     19388     19384     19382     19385     19386
     19384     19382     19385     19387     19384     19382     19385     19388
     19385     19388     19391     19392     19385     19388     19391     19393
     19385     19388     19391     19394     19386     19385     19388     19389
     19386     19385     19388     19390     19386     19385     19388     19391
     19387     19385     19388     19389     19387     19385     19388     19390
     19387     19385     19388     19391     19388     19391     19394     19395
     19388     19391     19394     19396     19388     19391     19394     19397
     19389     19388     19391     19392     19389     19388     19391     19393
     19389     19388     19391     19394     19390     19388     19391     19392
     19390     19388     19391     19393     19390     19388     19391     19394
     19391     19394     19397     19398     19391     19394     19397     19399
     19391     19394     19397     19400     19392     19391     19394     19395
     19392     19391     19394     19396     19392     19391     19394     19397
     19393     19391     19394     19395     19393     19391     19394     19396
     19393     19391     19394     19397     19394     19397     19400     19401
     19394     19397     19400     19402     19394     19397     19400     19403
     19395     19394     19397     19398     19395     19394     19397     19399
     19395     19394     19397     19400     19396     19394     19397     19398
     19396     19394     19397     19399     19396     19394     19397     19400
     19397     19400     19403     19404     19397     19400     19403     19405
     19397     19400     19403     19406     19398     19397     19400     19401
     19398     19397     19400     19402     19398     19397     19400     19403
     19399     19397     19400     19401     19399     19397     19400     19402
     19399     19397     19400     19403     19400     19403     19406     19407
     19400     19403     19406     19408     19400     19403     19406     19409
     19401     19400     19403     19404     19401     19400     19403     19405
     19401     19400     19403     19406     19402     19400     19403     19404
     19402     19400     19403     19405     19402     19400     19403     19406
     19403     19406     19409     19410     19403     19406     19409     19411
     19403     19406     19409     19412     19404     19403     19406     19407
     19404     19403     19406     19408     19404     19403     19406     19409
     19405     19403     19406     19407     19405     19403     19406     19408
     19405     19403     19406     19409     19406     19409     19412     19413
     19406     19409     19412     19414     19406     19409     19412     19415
     19407     19406     19409     19410     19407     19406     19409     19411
     19407     19406     19409     19412     19408     19406     19409     19410
     19408     19406     19409     19411     19408     19406     19409     19412
     19409     19412     19415     19416     19409     19412     19415     19417
     19409     19412     19415     19418     19410     19409     19412     19413
     19410     19409     19412     19414     19410     19409     19412     19415
     19411     19409     19412     19413     19411     19409     19412     19414
     19411     19409     19412     19415     19412     19415     19418     19419
     19412     19415     19418     19420     19412     19415     19418     19421
     19413     19412     19415     19416     19413     19412     19415     19417
     19413     19412     19415     19418     19414     19412     19415     19416
     19414     19412     19415     19417     19414     19412     19415     19418
     19415     19418     19421     19422     19415     19418     19421     19423
     19415     19418     19421     19424     19416     19415     19418     19419
     19416     19415     19418     19420     19416     19415     19418     19421
     19417     19415     19418     19419     19417     19415     19418     19420
     19417     19415     19418     19421     19419     19418     19421     19422
     19419     19418     19421     19423     19419     19418     19421     19424
     19420     19418     19421     19422     19420     19418     19421     19423
     19420     19418     19421     19424     19425     19429     19432     19433
     19425     19429     19432     19434     19425     19429     19432     19438
     19426     19425     19429     19430     19426     19425     19429     19431
     19426     19425     19429     19432     19427     19425     19429     19430
     19427     19425     19429     19431     19427     19425     19429     19432
     19428     19425     19429     19430     19428     19425     19429     19431
     19428     19425     19429     19432     19429     19432     19438     19435
     19430     19429     19432     19433     19430     19429     19432     19434
     19430     19429     19432     19438     19431     19429     19432     19433
     19431     19429     19432     19434     19431     19429     19432     19438
     19432     19438     19435     19436     19432     19438     19435     19437
     19432     19438     19435     19439     19433     19432     19438     19435
     19434     19432     19438     19435     19435     19439     19440     19441
     19435     19439     19440     19442     19435     19439     19440     19443
     19436     19435     19439     19440     19437     19435     19439     19440
     19438     19435     19439     19440     19439     19440     19443     19444
     19439     19440     19443     19445     19439     19440     19443     19451
     19440     19443     19445     19446     19440     19443     19451     19452
     19440     19443     19451     19453     19440     19443     19451     19454
     19441     19440     19443     19444     19441     19440     19443     19445
     19441     19440     19443     19451     19442     19440     19443     19444
     19442     19440     19443     19445     19442     19440     19443     19451
     19443     19445     19446     19447     19443     19445     19446     19448
     19443     19451     19454     19455     19444     19443     19445     19446
     19444     19443     19451     19452     19444     19443     19451     19453
     19444     19443     19451     19454     19445     19443     19451     19452
     19445     19443     19451     19453     19445     19443     19451     19454
     19445     19446     19448     19449     19445     19446     19448     19450
     19445     19446     19448     19460     19446     19445     19443     19451
     19446     19448     19460     19461     19446     19448     19460     19462
     19446     19448     19460     19463     19447     19446     19448     19449
     19447     19446     19448     19450     19447     19446     19448     19460
     19448     19460     19463     19464     19448     19460     19463     19465
     19448     19460     19463     19466     19449     19448     19460     19461
     19449     19448     19460     19462     19449     19448     19460     19463
     19450     19448     19460     19461     19450     19448     19460     19462
     19450     19448     19460     19463     19451     19454     19455     19456
     19451     19454     19455     19457     19452     19451     19454     19455
     19453     19451     19454     19455     19454     19455     19457     19458
     19454     19455     19457     19459     19454     19455     19457     19507
     19455     19457     19507     19508     19455     19457     19507     19509
     19455     19457     19507     19510     19456     19455     19457     19458
     19456     19455     19457     19459     19456     19455     19457     19507
     19457     19507     19510     19511     19457     19507     19510     19512
     19457     19507     19510     19513     19458     19457     19507     19508
     19458     19457     19507     19509     19458     19457     19507     19510
     19459     19457     19507     19508     19459     19457     19507     19509
     19459     19457     19507     19510     19460     19463     19466     19467
     19460     19463     19466     19468     19461     19460     19463     19464
     19461     19460     19463     19465     19461     19460     19463     19466
     19462     19460     19463     19464     19462     19460     19463     19465
     19462     19460     19463     19466     19463     19466     19468     19469
     19463     19466     19468     19470     19464     19463     19466     19467
     19464     19463     19466     19468     19465     19463     19466     19467
     19465     19463     19466     19468     19466     19468     19470     19471
     19466     19468     19470     19472     19466     19468     19470     19473
     19467     19466     19468     19469     19467     19466     19468     19470
     19468     19470     19473     19474     19468     19470     19473     19475
     19469     19468     19470     19471     19469     19468     19470     19472
     19469     19468     19470     19473     19470     19473     19475     19476
     19470     19473     19475     19477     19471     19470     19473     19474
     19471     19470     19473     19475     19472     19470     19473     19474
     19472     19470     19473     19475     19473     19475     19477     19478
     19473     19475     19477     19479     19473     19475     19477     19480
     19474     19473     19475     19476     19474     19473     19475     19477
     19475     19477     19480     19481     19475     19477     19480     19482
     19476     19475     19477     19478     19476     19475     19477     19479
     19476     19475     19477     19480     19477     19480     19482     19483
     19477     19480     19482     19484     19478     19477     19480     19481
     19478     19477     19480     19482     19479     19477     19480     19481
     19479     19477     19480     19482     19480     19482     19484     19485
     19480     19482     19484     19486     19480     19482     19484     19487
     19481     19480     19482     19483     19481     19480     19482     19484
     19482     19484     19487     19488     19482     19484     19487     19489
     19483     19482     19484     19485     19483     19482     19484     19486
     19483     19482     19484     19487     19484     19487     19489     19490
     19484     19487     19489     19491     19485     19484     19487     19488
     19485     19484     19487     19489     19486     19484     19487     19488
     19486     19484     19487     19489     19487     19489     19491     19492
     19487     19489     19491     19493     19487     19489     19491     19494
     19488     19487     19489     19490     19488     19487     19489     19491
     19489     19491     19494     19495     19489     19491     19494     19496
     19489     19491     19494     19497     19490     19489     19491     19492
     19490     19489     19491     19493     19490     19489     19491     19494
     19491     19494     19497     19498     19491     19494     19497     19499
     19491     19494     19497     19500     19492     19491     19494     19495
     19492     19491     19494     19496     19492     19491     19494     19497
     19493     19491     19494     19495     19493     19491     19494     19496
     19493     19491     19494     19497     19494     19497     19500     19501
     19494     19497     19500     19502     19494     19497     19500     19503
     19495     19494     19497     19498     19495     19494     19497     19499
     19495     19494     19497     19500     19496     19494     19497     19498
     19496     19494     19497     19499     19496     19494     19497     19500
     19497     19500     19503     19504     19497     19500     19503     19505
     19497     19500     19503     19506     19498     19497     19500     19501
     19498     19497     19500     19502     19498     19497     19500     19503
     19499     19497     19500     19501     19499     19497     19500     19502
     19499     19497     19500     19503     19501     19500     19503     19504
     19501     19500     19503     19505     19501     19500     19503     19506
     19502     19500     19503     19504     19502     19500     19503     19505
     19502     19500     19503     19506     19507     19510     19513     19514
     19507     19510     19513     19515     19507     19510     19513     19516
     19508     19507     19510     19511     19508     19507     19510     19512
     19508     19507     19510     19513     19509     19507     19510     19511
     19509     19507     19510     19512     19509     19507     19510     19513
     19510     19513     19516     19517     19510     19513     19516     19518
     19510     19513     19516     19519     19511     19510     19513     19514
     19511     19510     19513     19515     19511     19510     19513     19516
     19512     19510     19513     19514     19512     19510     19513     19515
     19512     19510     19513     19516     19513     19516     19519     19520
     19513     19516     19519     19521     19513     19516     19519     19522
     19514     19513     19516     19517     19514     19513     19516     19518
     19514     19513     19516     19519     19515     19513     19516     19517
     19515     19513     19516     19518     19515     19513     19516     19519
     19516     19519     19522     19523     19516     19519     19522     19524
     19516     19519     19522     19525     19517     19516     19519     19520
     19517     19516     19519     19521     19517     19516     19519     19522
     19518     19516     19519     19520     19518     19516     19519     19521
     19518     19516     19519     19522     19519     19522     19525     19526
     19519     19522     19525     19527     19519     19522     19525     19528
     19520     19519     19522     19523     19520     19519     19522     19524
     19520     19519     19522     19525     19521     19519     19522     19523
     19521     19519     19522     19524     19521     19519     19522     19525
     19522     19525     19528     19529     19522     19525     19528     19530
     19522     19525     19528     19531     19523     19522     19525     19526
     19523     19522     19525     19527     19523     19522     19525     19528
     19524     19522     19525     19526     19524     19522     19525     19527
     19524     19522     19525     19528     19525     19528     19531     19532
     19525     19528     19531     19533     19525     19528     19531     19534
     19526     19525     19528     19529     19526     19525     19528     19530
     19526     19525     19528     19531     19527     19525     19528     19529
     19527     19525     19528     19530     19527     19525     19528     19531
     19528     19531     19534     19535     19528     19531     19534     19536
     19528     19531     19534     19537     19529     19528     19531     19532
     19529     19528     19531     19533     19529     19528     19531     19534
     19530     19528     19531     19532     19530     19528     19531     19533
     19530     19528     19531     19534     19531     19534     19537     19538
     19531     19534     19537     19539     19531     19534     19537     19540
     19532     19531     19534     19535     19532     19531     19534     19536
     19532     19531     19534     19537     19533     19531     19534     19535
     19533     19531     19534     19536     19533     19531     19534     19537
     19534     19537     19540     19541     19534     19537     19540     19542
     19534     19537     19540     19543     19535     19534     19537     19538
     19535     19534     19537     19539     19535     19534     19537     19540
     19536     19534     19537     19538     19536     19534     19537     19539
     19536     19534     19537     19540     19537     19540     19543     19544
     19537     19540     19543     19545     19537     19540     19543     19546
     19538     19537     19540     19541     19538     19537     19540     19542
     19538     19537     19540     19543     19539     19537     19540     19541
     19539     19537     19540     19542     19539     19537     19540     19543
     19540     19543     19546     19547     19540     19543     19546     19548
     19540     19543     19546     19549     19541     19540     19543     19544
     19541     19540     19543     19545     19541     19540     19543     19546
     19542     19540     19543     19544     19542     19540     19543     19545
     19542     19540     19543     19546     19543     19546     19549     19550
     19543     19546     19549     19551     19543     19546     19549     19552
     19544     19543     19546     19547     19544     19543     19546     19548
     19544     19543     19546     19549     19545     19543     19546     19547
     19545     19543     19546     19548     19545     19543     19546     19549
     19546     19549     19552     19553     19546     19549     19552     19554
     19546     19549     19552     19555     19547     19546     19549     19550
     19547     19546     19549     19551     19547     19546     19549     19552
     19548     19546     19549     19550     19548     19546     19549     19551
     19548     19546     19549     19552     19550     19549     19552     19553
     19550     19549     19552     19554     19550     19549     19552     19555
     19551     19549     19552     19553     19551     19549     19552     19554
     19551     19549     19552     19555     19556     19569     19572     19573
     19556     19569     19572     19574     19556     19569     19572     19579
     19557     19556     19561     19562     19557     19556     19561     19563
     19557     19556     19561     19564     19557     19556     19565     19566
     19557     19556     19565     19567     19557     19556     19565     19568
     19557     19556     19569     19570     19557     19556     19569     19571
     19557     19556     19569     19572     19558     19557     19556     19561
     19558     19557     19556     19565     19558     19557     19556     19569
     19559     19557     19556     19561     19559     19557     19556     19565
     19559     19557     19556     19569     19560     19557     19556     19561
     19560     19557     19556     19565     19560     19557     19556     19569
     19561     19556     19565     19566     19561     19556     19565     19567
     19561     19556     19565     19568     19561     19556     19569     19570
     19561     19556     19569     19571     19561     19556     19569     19572
     19562     19561     19556     19565     19562     19561     19556     19569
     19563     19561     19556     19565     19563     19561     19556     19569
     19564     19561     19556     19565     19564     19561     19556     19569
     19565     19556     19569     19570     19565     19556     19569     19571
     19565     19556     19569     19572     19566     19565     19556     19569
     19567     19565     19556     19569     19568     19565     19556     19569
     19569     19572     19579     19575     19570     19569     19572     19573
     19570     19569     19572     19574     19570     19569     19572     19579
     19571     19569     19572     19573     19571     19569     19572     19574
     19571     19569     19572     19579     19572     19579     19575     19576
     19572     19579     19575     19577     19572     19579     19575     19578
     19573     19572     19579     19575     19574     19572     19579     19575
     19575     19578     19580     19581     19575     19578     19580     19582
     19575     19578     19580     19585     19576     19575     19578     19580
     19577     19575     19578     19580     19578     19580     19585     19583
     19578     19580     19585     19586     19578     19580     19585     19587
     19579     19575     19578     19580     19580     19585     19583     19584
     19580     19585     19583     19635     19580     19585     19587     19588
     19580     19585     19587     19589     19580     19585     19587     19591
     19581     19580     19585     19583     19581     19580     19585     19586
     19581     19580     19585     19587     19582     19580     19585     19583
     19582     19580     19585     19586     19582     19580     19585     19587
     19583     19585     19587     19588     19583     19585     19587     19589
     19583     19585     19587     19591     19583     19635     19637     19638
     19583     19635     19637     19639     19583     19635     19637     19640
     19584     19583     19585     19586     19584     19583     19585     19587
     19584     19583     19635     19636     19584     19583     19635     19637
     19585     19583     19635     19636     19585     19583     19635     19637
     19585     19587     19589     19590     19585     19587     19591     19592
     19585     19587     19591     19593     19586     19585     19583     19635
     19586     19585     19587     19588     19586     19585     19587     19589
     19586     19585     19587     19591     19587     19585     19583     19635
     19587     19591     19593     19594     19587     19591     19593     19595
     19588     19587     19589     19590     19588     19587     19591     19592
     19588     19587     19591     19593     19589     19587     19591     19592
     19589     19587     19591     19593     19590     19589     19587     19591
     19591     19593     19595     19596     19591     19593     19595     19597
     19591     19593     19595     19598     19592     19591     19593     19594
     19592     19591     19593     19595     19593     19595     19598     19599
     19593     19595     19598     19600     19593     19595     19598     19601
     19594     19593     19595     19596     19594     19593     19595     19597
     19594     19593     19595     19598     19595     19598     19601     19602
     19595     19598     19601     19603     19595     19598     19601     19604
     19596     19595     19598     19599     19596     19595     19598     19600
     19596     19595     19598     19601     19597     19595     19598     19599
     19597     19595     19598     19600     19597     19595     19598     19601
     19598     19601     19604     19605     19598     19601     19604     19606
     19598     19601     19604     19607     19599     19598     19601     19602
     19599     19598     19601     19603     19599     19598     19601     19604
     19600     19598     19601     19602     19600     19598     19601     19603
     19600     19598     19601     19604     19601     19604     19607     19608
     19601     19604     19607     19609     19601     19604     19607     19610
     19602     19601     19604     19605     19602     19601     19604     19606
     19602     19601     19604     19607     19603     19601     19604     19605
     19603     19601     19604     19606     19603     19601     19604     19607
     19604     19607     19610     19611     19604     19607     19610     19612
     19604     19607     19610     19613     19605     19604     19607     19608
     19605     19604     19607     19609     19605     19604     19607     19610
     19606     19604     19607     19608     19606     19604     19607     19609
     19606     19604     19607     19610     19607     19610     19613     19614
     19607     19610     19613     19615     19607     19610     19613     19616
     19608     19607     19610     19611     19608     19607     19610     19612
     19608     19607     19610     19613     19609     19607     19610     19611
     19609     19607     19610     19612     19609     19607     19610     19613
     19610     19613     19616     19617     19610     19613     19616     19618
     19610     19613     19616     19619     19611     19610     19613     19614
     19611     19610     19613     19615     19611     19610     19613     19616
     19612     19610     19613     19614     19612     19610     19613     19615
     19612     19610     19613     19616     19613     19616     19619     19620
     19613     19616     19619     19621     19613     19616     19619     19622
     19614     19613     19616     19617     19614     19613     19616     19618
     19614     19613     19616     19619     19615     19613     19616     19617
     19615     19613     19616     19618     19615     19613     19616     19619
     19616     19619     19622     19623     19616     19619     19622     19624
     19616     19619     19622     19625     19617     19616     19619     19620
     19617     19616     19619     19621     19617     19616     19619     19622
     19618     19616     19619     19620     19618     19616     19619     19621
     19618     19616     19619     19622     19619     19622     19625     19626
     19619     19622     19625     19627     19619     19622     19625     19628
     19620     19619     19622     19623     19620     19619     19622     19624
     19620     19619     19622     19625     19621     19619     19622     19623
     19621     19619     19622     19624     19621     19619     19622     19625
     19622     19625     19628     19629     19622     19625     19628     19630
     19622     19625     19628     19631     19623     19622     19625     19626
     19623     19622     19625     19627     19623     19622     19625     19628
     19624     19622     19625     19626     19624     19622     19625     19627
     19624     19622     19625     19628     19625     19628     19631     19632
     19625     19628     19631     19633     19625     19628     19631     19634
     19626     19625     19628     19629     19626     19625     19628     19630
     19626     19625     19628     19631     19627     19625     19628     19629
     19627     19625     19628     19630     19627     19625     19628     19631
     19629     19628     19631     19632     19629     19628     19631     19633
     19629     19628     19631     19634     19630     19628     19631     19632
     19630     19628     19631     19633     19630     19628     19631     19634
     19635     19637     19640     19641     19635     19637     19640     19642
     19635     19637     19640     19643     19636     19635     19637     19638
     19636     19635     19637     19639     19636     19635     19637     19640
     19637     19640     19643     19644     19637     19640     19643     19645
     19637     19640     19643     19646     19638     19637     19640     19641
     19638     19637     19640     19642     19638     19637     19640     19643
     19639     19637     19640     19641     19639     19637     19640     19642
     19639     19637     19640     19643     19640     19643     19646     19647
     19640     19643     19646     19648     19640     19643     19646     19649
     19641     19640     19643     19644     19641     19640     19643     19645
     19641     19640     19643     19646     19642     19640     19643     19644
     19642     19640     19643     19645     19642     19640     19643     19646
     19643     19646     19649     19650     19643     19646     19649     19651
     19643     19646     19649     19652     19644     19643     19646     19647
     19644     19643     19646     19648     19644     19643     19646     19649
     19645     19643     19646     19647     19645     19643     19646     19648
     19645     19643     19646     19649     19646     19649     19652     19653
     19646     19649     19652     19654     19646     19649     19652     19655
     19647     19646     19649     19650     19647     19646     19649     19651
     19647     19646     19649     19652     19648     19646     19649     19650
     19648     19646     19649     19651     19648     19646     19649     19652
     19649     19652     19655     19656     19649     19652     19655     19657
     19649     19652     19655     19658     19650     19649     19652     19653
     19650     19649     19652     19654     19650     19649     19652     19655
     19651     19649     19652     19653     19651     19649     19652     19654
     19651     19649     19652     19655     19652     19655     19658     19659
     19652     19655     19658     19660     19653     19652     19655     19656
     19653     19652     19655     19657     19653     19652     19655     19658
     19654     19652     19655     19656     19654     19652     19655     19657
     19654     19652     19655     19658     19655     19658     19660     19661
     19655     19658     19660     19662     19656     19655     19658     19659
     19656     19655     19658     19660     19657     19655     19658     19659
     19657     19655     19658     19660     19658     19660     19662     19663
     19658     19660     19662     19664     19658     19660     19662     19665
     19659     19658     19660     19661     19659     19658     19660     19662
     19660     19662     19665     19666     19660     19662     19665     19667
     19660     19662     19665     19668     19661     19660     19662     19663
     19661     19660     19662     19664     19661     19660     19662     19665
     19662     19665     19668     19669     19662     19665     19668     19670
     19662     19665     19668     19671     19663     19662     19665     19666
     19663     19662     19665     19667     19663     19662     19665     19668
     19664     19662     19665     19666     19664     19662     19665     19667
     19664     19662     19665     19668     19665     19668     19671     19672
     19665     19668     19671     19673     19665     19668     19671     19674
     19666     19665     19668     19669     19666     19665     19668     19670
     19666     19665     19668     19671     19667     19665     19668     19669
     19667     19665     19668     19670     19667     19665     19668     19671
     19668     19671     19674     19675     19668     19671     19674     19676
     19668     19671     19674     19677     19669     19668     19671     19672
     19669     19668     19671     19673     19669     19668     19671     19674
     19670     19668     19671     19672     19670     19668     19671     19673
     19670     19668     19671     19674     19671     19674     19677     19678
     19671     19674     19677     19679     19671     19674     19677     19680
     19672     19671     19674     19675     19672     19671     19674     19676
     19672     19671     19674     19677     19673     19671     19674     19675
     19673     19671     19674     19676     19673     19671     19674     19677
     19674     19677     19680     19681     19674     19677     19680     19682
     19674     19677     19680     19683     19675     19674     19677     19678
     19675     19674     19677     19679     19675     19674     19677     19680
     19676     19674     19677     19678     19676     19674     19677     19679
     19676     19674     19677     19680     19677     19680     19683     19684
     19677     19680     19683     19685     19677     19680     19683     19686
     19678     19677     19680     19681     19678     19677     19680     19682
     19678     19677     19680     19683     19679     19677     19680     19681
     19679     19677     19680     19682     19679     19677     19680     19683
     19681     19680     19683     19684     19681     19680     19683     19685
     19681     19680     19683     19686     19682     19680     19683     19684
     19682     19680     19683     19685     19682     19680     19683     19686
     19687     19700     19703     19704     19687     19700     19703     19705
     19687     19700     19703     19709     19688     19687     19692     19693
     19688     19687     19692     19694     19688     19687     19692     19695
     19688     19687     19696     19697     19688     19687     19696     19698
     19688     19687     19696     19699     19688     19687     19700     19701
     19688     19687     19700     19702     19688     19687     19700     19703
     19689     19688     19687     19692     19689     19688     19687     19696
     19689     19688     19687     19700     19690     19688     19687     19692
     19690     19688     19687     19696     19690     19688     19687     19700
     19691     19688     19687     19692     19691     19688     19687     19696
     19691     19688     19687     19700     19692     19687     19696     19697
     19692     19687     19696     19698     19692     19687     19696     19699
     19692     19687     19700     19701     19692     19687     19700     19702
     19692     19687     19700     19703     19693     19692     19687     19696
     19693     19692     19687     19700     19694     19692     19687     19696
     19694     19692     19687     19700     19695     19692     19687     19696
     19695     19692     19687     19700     19696     19687     19700     19701
     19696     19687     19700     19702     19696     19687     19700     19703
     19697     19696     19687     19700     19698     19696     19687     19700
     19699     19696     19687     19700     19700     19703     19709     19706
     19701     19700     19703     19704     19701     19700     19703     19705
     19701     19700     19703     19709     19702     19700     19703     19704
     19702     19700     19703     19705     19702     19700     19703     19709
     19703     19709     19706     19707     19703     19709     19706     19708
     19703     19709     19706     19710     19704     19703     19709     19706
     19705     19703     19709     19706     19706     19710     19711     19712
     19706     19710     19711     19713     19706     19710     19711     19714
     19707     19706     19710     19711     19708     19706     19710     19711
     19709     19706     19710     19711     19710     19711     19714     19715
     19710     19711     19714     19716     19710     19711     19714     19722
     19711     19714     19716     19717     19711     19714     19722     19723
     19711     19714     19722     19724     19711     19714     19722     19725
     19712     19711     19714     19715     19712     19711     19714     19716
     19712     19711     19714     19722     19713     19711     19714     19715
     19713     19711     19714     19716     19713     19711     19714     19722
     19714     19716     19717     19718     19714     19716     19717     19719
     19714     19722     19725     19726     19715     19714     19716     19717
     19715     19714     19722     19723     19715     19714     19722     19724
     19715     19714     19722     19725     19716     19714     19722     19723
     19716     19714     19722     19724     19716     19714     19722     19725
     19716     19717     19719     19720     19716     19717     19719     19721
     19716     19717     19719     19731     19717     19716     19714     19722
     19717     19719     19731     19732     19717     19719     19731     19733
     19717     19719     19731     19734     19718     19717     19719     19720
     19718     19717     19719     19721     19718     19717     19719     19731
     19719     19731     19734     19735     19719     19731     19734     19736
     19719     19731     19734     19737     19720     19719     19731     19732
     19720     19719     19731     19733     19720     19719     19731     19734
     19721     19719     19731     19732     19721     19719     19731     19733
     19721     19719     19731     19734     19722     19725     19726     19727
     19722     19725     19726     19728     19723     19722     19725     19726
     19724     19722     19725     19726     19725     19726     19728     19729
     19725     19726     19728     19730     19725     19726     19728     19776
     19726     19728     19776     19777     19726     19728     19776     19778
     19726     19728     19776     19779     19727     19726     19728     19729
     19727     19726     19728     19730     19727     19726     19728     19776
     19728     19776     19779     19780     19728     19776     19779     19781
     19728     19776     19779     19782     19729     19728     19776     19777
     19729     19728     19776     19778     19729     19728     19776     19779
     19730     19728     19776     19777     19730     19728     19776     19778
     19730     19728     19776     19779     19731     19734     19737     19738
     19731     19734     19737     19739     19731     19734     19737     19740
     19732     19731     19734     19735     19732     19731     19734     19736
     19732     19731     19734     19737     19733     19731     19734     19735
     19733     19731     19734     19736     19733     19731     19734     19737
     19734     19737     19740     19741     19734     19737     19740     19742
     19734     19737     19740     19743     19735     19734     19737     19738
     19735     19734     19737     19739     19735     19734     19737     19740
     19736     19734     19737     19738     19736     19734     19737     19739
     19736     19734     19737     19740     19737     19740     19743     19744
     19737     19740     19743     19745     19737     19740     19743     19746
     19738     19737     19740     19741     19738     19737     19740     19742
     19738     19737     19740     19743     19739     19737     19740     19741
     19739     19737     19740     19742     19739     19737     19740     19743
     19740     19743     19746     19747     19740     19743     19746     19748
     19740     19743     19746     19749     19741     19740     19743     19744
     19741     19740     19743     19745     19741     19740     19743     19746
     19742     19740     19743     19744     19742     19740     19743     19745
     19742     19740     19743     19746     19743     19746     19749     19750
     19743     19746     19749     19751     19744     19743     19746     19747
     19744     19743     19746     19748     19744     19743     19746     19749
     19745     19743     19746     19747     19745     19743     19746     19748
     19745     19743     19746     19749     19746     19749     19751     19752
     19746     19749     19751     19753     19747     19746     19749     19750
     19747     19746     19749     19751     19748     19746     19749     19750
     19748     19746     19749     19751     19749     19751     19753     19754
     19749     19751     19753     19755     19749     19751     19753     19756
     19750     19749     19751     19752     19750     19749     19751     19753
     19751     19753     19756     19757     19751     19753     19756     19758
     19752     19751     19753     19754     19752     19751     19753     19755
     19752     19751     19753     19756     19753     19756     19758     19759
     19753     19756     19758     19760     19754     19753     19756     19757
     19754     19753     19756     19758     19755     19753     19756     19757
     19755     19753     19756     19758     19756     19758     19760     19761
     19756     19758     19760     19762     19756     19758     19760     19763
     19757     19756     19758     19759     19757     19756     19758     19760
     19758     19760     19763     19764     19758     19760     19763     19765
     19758     19760     19763     19766     19759     19758     19760     19761
     19759     19758     19760     19762     19759     19758     19760     19763
     19760     19763     19766     19767     19760     19763     19766     19768
     19760     19763     19766     19769     19761     19760     19763     19764
     19761     19760     19763     19765     19761     19760     19763     19766
     19762     19760     19763     19764     19762     19760     19763     19765
     19762     19760     19763     19766     19763     19766     19769     19770
     19763     19766     19769     19771     19763     19766     19769     19772
     19764     19763     19766     19767     19764     19763     19766     19768
     19764     19763     19766     19769     19765     19763     19766     19767
     19765     19763     19766     19768     19765     19763     19766     19769
     19766     19769     19772     19773     19766     19769     19772     19774
     19766     19769     19772     19775     19767     19766     19769     19770
     19767     19766     19769     19771     19767     19766     19769     19772
     19768     19766     19769     19770     19768     19766     19769     19771
     19768     19766     19769     19772     19770     19769     19772     19773
     19770     19769     19772     19774     19770     19769     19772     19775
     19771     19769     19772     19773     19771     19769     19772     19774
     19771     19769     19772     19775     19776     19779     19782     19783
     19776     19779     19782     19784     19776     19779     19782     19785
     19777     19776     19779     19780     19777     19776     19779     19781
     19777     19776     19779     19782     19778     19776     19779     19780
     19778     19776     19779     19781     19778     19776     19779     19782
     19779     19782     19785     19786     19779     19782     19785     19787
     19779     19782     19785     19788     19780     19779     19782     19783
     19780     19779     19782     19784     19780     19779     19782     19785
     19781     19779     19782     19783     19781     19779     19782     19784
     19781     19779     19782     19785     19782     19785     19788     19789
     19782     19785     19788     19790     19782     19785     19788     19791
     19783     19782     19785     19786     19783     19782     19785     19787
     19783     19782     19785     19788     19784     19782     19785     19786
     19784     19782     19785     19787     19784     19782     19785     19788
     19785     19788     19791     19792     19785     19788     19791     19793
     19785     19788     19791     19794     19786     19785     19788     19789
     19786     19785     19788     19790     19786     19785     19788     19791
     19787     19785     19788     19789     19787     19785     19788     19790
     19787     19785     19788     19791     19788     19791     19794     19795
     19788     19791     19794     19796     19788     19791     19794     19797
     19789     19788     19791     19792     19789     19788     19791     19793
     19789     19788     19791     19794     19790     19788     19791     19792
     19790     19788     19791     19793     19790     19788     19791     19794
     19791     19794     19797     19798     19791     19794     19797     19799
     19791     19794     19797     19800     19792     19791     19794     19795
     19792     19791     19794     19796     19792     19791     19794     19797
     19793     19791     19794     19795     19793     19791     19794     19796
     19793     19791     19794     19797     19794     19797     19800     19801
     19794     19797     19800     19802     19794     19797     19800     19803
     19795     19794     19797     19798     19795     19794     19797     19799
     19795     19794     19797     19800     19796     19794     19797     19798
     19796     19794     19797     19799     19796     19794     19797     19800
     19797     19800     19803     19804     19797     19800     19803     19805
     19797     19800     19803     19806     19798     19797     19800     19801
     19798     19797     19800     19802     19798     19797     19800     19803
     19799     19797     19800     19801     19799     19797     19800     19802
     19799     19797     19800     19803     19800     19803     19806     19807
     19800     19803     19806     19808     19800     19803     19806     19809
     19801     19800     19803     19804     19801     19800     19803     19805
     19801     19800     19803     19806     19802     19800     19803     19804
     19802     19800     19803     19805     19802     19800     19803     19806
     19803     19806     19809     19810     19803     19806     19809     19811
     19803     19806     19809     19812     19804     19803     19806     19807
     19804     19803     19806     19808     19804     19803     19806     19809
     19805     19803     19806     19807     19805     19803     19806     19808
     19805     19803     19806     19809     19806     19809     19812     19813
     19806     19809     19812     19814     19806     19809     19812     19815
     19807     19806     19809     19810     19807     19806     19809     19811
     19807     19806     19809     19812     19808     19806     19809     19810
     19808     19806     19809     19811     19808     19806     19809     19812
     19809     19812     19815     19816     19809     19812     19815     19817
     19809     19812     19815     19818     19810     19809     19812     19813
     19810     19809     19812     19814     19810     19809     19812     19815
     19811     19809     19812     19813     19811     19809     19812     19814
     19811     19809     19812     19815     19812     19815     19818     19819
     19812     19815     19818     19820     19812     19815     19818     19821
     19813     19812     19815     19816     19813     19812     19815     19817
     19813     19812     19815     19818     19814     19812     19815     19816
     19814     19812     19815     19817     19814     19812     19815     19818
     19815     19818     19821     19822     19815     19818     19821     19823
     19815     19818     19821     19824     19816     19815     19818     19819
     19816     19815     19818     19820     19816     19815     19818     19821
     19817     19815     19818     19819     19817     19815     19818     19820
     19817     19815     19818     19821     19819     19818     19821     19822
     19819     19818     19821     19823     19819     19818     19821     19824
     19820     19818     19821     19822     19820     19818     19821     19823
     19820     19818     19821     19824     19825     19829     19832     19833
     19825     19829     19832     19863     19825     19871     19868     19863
     19825     19871     19868     19869     19825     19871     19868     19870
     19826     19825     19827     19828     19826     19825     19829     19830
     19826     19825     19829     19831     19826     19825     19829     19832
     19826     19825     19871     19868     19826     19825     19871     19872
     19826     19825     19871     19873     19827     19825     19829     19830
     19827     19825     19829     19831     19827     19825     19829     19832
     19827     19825     19871     19868     19827     19825     19871     19872
     19827     19825     19871     19873     19828     19827     19825     19829
     19828     19827     19825     19871     19829     19825     19871     19868
     19829     19825     19871     19872     19829     19825     19871     19873
     19829     19832     19833     19834     19829     19832     19833     19835
     19829     19832     19863     19861     19829     19832     19863     19864
     19829     19832     19863     19868     19830     19829     19825     19871
     19830     19829     19832     19833     19830     19829     19832     19863
     19831     19829     19825     19871     19831     19829     19832     19833
     19831     19829     19832     19863     19832     19829     19825     19871
     19832     19833     19835     19836     19832     19833     19835     19837
     19832     19833     19835     19838     19832     19863     19861     19838
     19832     19863     19861     19858     19832     19863     19861     19862
     19832     19863     19864     19865     19832     19863     19864     19866
     19832     19863     19864     19867     19832     19863     19868     19869
     19832     19863     19868     19870     19832     19863     19868     19871
     19833     19832     19863     19861     19833     19832     19863     19864
     19833     19832     19863     19868     19833     19835     19838     19839
     19833     19835     19838     19840     19833     19835     19838     19861
     19834     19833     19832     19863     19834     19833     19835     19836
     19834     19833     19835     19837     19834     19833     19835     19838
     19835     19833     19832     19863     19835     19838     19840     19841
     19835     19838     19840     19842     19835     19838     19840     19850
     19835     19838     19861     19858     19835     19838     19861     19862
     19835     19838     19861     19863     19836     19835     19838     19839
     19836     19835     19838     19840     19836     19835     19838     19861
     19837     19835     19838     19839     19837     19835     19838     19840
     19837     19835     19838     19861     19838     19840     19842     19843
     19838     19840     19842     19844     19838     19840     19842     19845
     19838     19840     19850     19848     19838     19840     19850     19851
     19838     19840     19850     19855     19838     19861     19858     19855
     19838     19861     19858     19859     19838     19861     19858     19860
     19838     19861     19863     19864     19838     19861     19863     19868
     19839     19838     19840     19841     19839     19838     19840     19842
     19839     19838     19840     19850     19839     19838     19861     19858
     19839     19838     19861     19862     19839     19838     19861     19863
     19840     19838     19861     19858     19840     19838     19861     19862
     19840     19838     19861     19863     19840     19842     19845     19846
     19840     19842     19845     19847     19840     19842     19845     19848
     19840     19850     19848     19845     19840     19850     19848     19849
     19840     19850     19848     19874     19840     19850     19851     19852
     19840     19850     19851     19853     19840     19850     19851     19854
     19840     19850     19855     19856     19840     19850     19855     19857
     19840     19850     19855     19858     19841     19840     19838     19861
     19841     19840     19842     19843     19841     19840     19842     19844
     19841     19840     19842     19845     19841     19840     19850     19848
     19841     19840     19850     19851     19841     19840     19850     19855
     19842     19840     19838     19861     19842     19840     19850     19848
     19842     19840     19850     19851     19842     19840     19850     19855
     19842     19845     19848     19849     19842     19845     19848     19850
     19842     19845     19848     19874     19843     19842     19840     19850
     19843     19842     19845     19846     19843     19842     19845     19847
     19843     19842     19845     19848     19844     19842     19840     19850
     19844     19842     19845     19846     19844     19842     19845     19847
     19844     19842     19845     19848     19845     19842     19840     19850
     19845     19848     19850     19851     19845     19848     19850     19855
     19845     19848     19874     19875     19845     19848     19874     19876
     19845     19848     19874     19880     19846     19845     19848     19849
     19846     19845     19848     19850     19846     19845     19848     19874
     19847     19845     19848     19849     19847     19845     19848     19850
     19847     19845     19848     19874     19848     19850     19851     19852
     19848     19850     19851     19853     19848     19850     19851     19854
     19848     19850     19855     19856     19848     19850     19855     19857
     19848     19850     19855     19858     19848     19874     19876     19877
     19848     19874     19876     19878     19848     19874     19876     19879
     19848     19874     19880     19881     19848     19874     19880     19882
     19848     19874     19880     19883     19849     19848     19850     19851
     19849     19848     19850     19855     19849     19848     19874     19875
     19849     19848     19874     19876     19849     19848     19874     19880
     19850     19840     19838     19861     19850     19848     19874     19875
     19850     19848     19874     19876     19850     19848     19874     19880
     19850     19855     19858     19859     19850     19855     19858     19860
     19850     19855     19858     19861     19851     19850     19848     19874
     19851     19850     19855     19856     19851     19850     19855     19857
     19851     19850     19855     19858     19852     19851     19850     19855
     19853     19851     19850     19855     19854     19851     19850     19855
     19855     19850     19848     19874     19855     19858     19861     19862
     19855     19858     19861     19863     19856     19855     19858     19859
     19856     19855     19858     19860     19856     19855     19858     19861
     19857     19855     19858     19859     19857     19855     19858     19860
     19857     19855     19858     19861     19858     19861     19863     19864
     19858     19861     19863     19868     19859     19858     19861     19862
     19859     19858     19861     19863     19860     19858     19861     19862
     19860     19858     19861     19863     19861     19863     19864     19865
     19861     19863     19864     19866     19861     19863     19864     19867
     19861     19863     19868     19869     19861     19863     19868     19870
     19861     19863     19868     19871     19862     19861     19863     19864
     19862     19861     19863     19868     19863     19868     19871     19872
     19863     19868     19871     19873     19864     19863     19868     19869
     19864     19863     19868     19870     19864     19863     19868     19871
     19865     19864     19863     19868     19866     19864     19863     19868
     19867     19864     19863     19868     19869     19868     19871     19872
     19869     19868     19871     19873     19870     19868     19871     19872
     19870     19868     19871     19873     19874     19880     19883     19884
     19874     19880     19883     19885     19874     19880     19883     19886
     19875     19874     19876     19877     19875     19874     19876     19878
     19875     19874     19876     19879     19875     19874     19880     19881
     19875     19874     19880     19882     19875     19874     19880     19883
     19876     19874     19880     19881     19876     19874     19880     19882
     19876     19874     19880     19883     19877     19876     19874     19880
     19878     19876     19874     19880     19879     19876     19874     19880
     19880     19883     19886     19887     19880     19883     19886     19888
     19880     19883     19886     19889     19881     19880     19883     19884
     19881     19880     19883     19885     19881     19880     19883     19886
     19882     19880     19883     19884     19882     19880     19883     19885
     19882     19880     19883     19886     19883     19886     19889     19890
     19883     19886     19889     19891     19883     19886     19889     19895
     19884     19883     19886     19887     19884     19883     19886     19888
     19884     19883     19886     19889     19885     19883     19886     19887
     19885     19883     19886     19888     19885     19883     19886     19889
     19886     19889     19891     19892     19886     19889     19891     19893
     19886     19889     19891     19894     19886     19889     19895     19896
     19886     19889     19895     19897     19886     19889     19895     19898
     19887     19886     19889     19890     19887     19886     19889     19891
     19887     19886     19889     19895     19888     19886     19889     19890
     19888     19886     19889     19891     19888     19886     19889     19895
     19890     19889     19891     19892     19890     19889     19891     19893
     19890     19889     19891     19894     19890     19889     19895     19896
     19890     19889     19895     19897     19890     19889     19895     19898
     19891     19889     19895     19896     19891     19889     19895     19897
     19891     19889     19895     19898     19892     19891     19889     19895
     19893     19891     19889     19895     19894     19891     19889     19895
     19899     19900     19915     19916     19899     19900     19915     19917
     19899     19900     19915     19921     19900     19899     19903     19904
     19900     19899     19903     19905     19900     19899     19903     19906
     19900     19899     19907     19908     19900     19899     19907     19909
     19900     19899     19907     19910     19900     19899     19911     19912
     19900     19899     19911     19913     19900     19899     19911     19914
     19900     19915     19921     19918     19901     19900     19899     19903
     19901     19900     19899     19907     19901     19900     19899     19911
     19901     19900     19915     19916     19901     19900     19915     19917
     19901     19900     19915     19921     19902     19900     19899     19903
     19902     19900     19899     19907     19902     19900     19899     19911
     19902     19900     19915     19916     19902     19900     19915     19917
     19902     19900     19915     19921     19903     19899     19900     19915
     19903     19899     19907     19908     19903     19899     19907     19909
     19903     19899     19907     19910     19903     19899     19911     19912
     19903     19899     19911     19913     19903     19899     19911     19914
     19904     19903     19899     19907     19904     19903     19899     19911
     19905     19903     19899     19907     19905     19903     19899     19911
     19906     19903     19899     19907     19906     19903     19899     19911
     19907     19899     19900     19915     19907     19899     19911     19912
     19907     19899     19911     19913     19907     19899     19911     19914
     19908     19907     19899     19911     19909     19907     19899     19911
     19910     19907     19899     19911     19911     19899     19900     19915
     19915     19921     19918     19919     19915     19921     19918     19920
     19915     19921     19918     19922     19916     19915     19921     19918
     19917     19915     19921     19918     19918     19922     19923     19924
     19918     19922     19923     19925     19918     19922     19923     19926
     19919     19918     19922     19923     19920     19918     19922     19923
     19921     19918     19922     19923     19922     19923     19926     19927
     19922     19923     19926     19928     19922     19923     19926     19934
     19923     19926     19928     19929     19923     19926     19934     19935
     19923     19926     19934     19936     19923     19926     19934     19937
     19924     19923     19926     19927     19924     19923     19926     19928
     19924     19923     19926     19934     19925     19923     19926     19927
     19925     19923     19926     19928     19925     19923     19926     19934
     19926     19928     19929     19930     19926     19928     19929     19931
     19926     19934     19937     19938     19927     19926     19928     19929
     19927     19926     19934     19935     19927     19926     19934     19936
     19927     19926     19934     19937     19928     19926     19934     19935
     19928     19926     19934     19936     19928     19926     19934     19937
     19928     19929     19931     19932     19928     19929     19931     19933
     19928     19929     19931     19943     19929     19928     19926     19934
     19929     19931     19943     19944     19929     19931     19943     19945
     19929     19931     19943     19946     19930     19929     19931     19932
     19930     19929     19931     19933     19930     19929     19931     19943
     19931     19943     19946     19947     19931     19943     19946     19948
     19931     19943     19946     19949     19932     19931     19943     19944
     19932     19931     19943     19945     19932     19931     19943     19946
     19933     19931     19943     19944     19933     19931     19943     19945
     19933     19931     19943     19946     19934     19937     19938     19939
     19934     19937     19938     19940     19935     19934     19937     19938
     19936     19934     19937     19938     19937     19938     19940     19941
     19937     19938     19940     19942     19937     19938     19940     19990
     19938     19940     19990     19991     19938     19940     19990     19992
     19938     19940     19990     19993     19939     19938     19940     19941
     19939     19938     19940     19942     19939     19938     19940     19990
     19940     19990     19993     19994     19940     19990     19993     19995
     19940     19990     19993     19996     19941     19940     19990     19991
     19941     19940     19990     19992     19941     19940     19990     19993
     19942     19940     19990     19991     19942     19940     19990     19992
     19942     19940     19990     19993     19943     19946     19949     19950
     19943     19946     19949     19951     19943     19946     19949     19952
     19944     19943     19946     19947     19944     19943     19946     19948
     19944     19943     19946     19949     19945     19943     19946     19947
     19945     19943     19946     19948     19945     19943     19946     19949
     19946     19949     19952     19953     19946     19949     19952     19954
     19946     19949     19952     19955     19947     19946     19949     19950
     19947     19946     19949     19951     19947     19946     19949     19952
     19948     19946     19949     19950     19948     19946     19949     19951
     19948     19946     19949     19952     19949     19952     19955     19956
     19949     19952     19955     19957     19949     19952     19955     19958
     19950     19949     19952     19953     19950     19949     19952     19954
     19950     19949     19952     19955     19951     19949     19952     19953
     19951     19949     19952     19954     19951     19949     19952     19955
     19952     19955     19958     19959     19952     19955     19958     19960
     19952     19955     19958     19961     19953     19952     19955     19956
     19953     19952     19955     19957     19953     19952     19955     19958
     19954     19952     19955     19956     19954     19952     19955     19957
     19954     19952     19955     19958     19955     19958     19961     19962
     19955     19958     19961     19963     19956     19955     19958     19959
     19956     19955     19958     19960     19956     19955     19958     19961
     19957     19955     19958     19959     19957     19955     19958     19960
     19957     19955     19958     19961     19958     19961     19963     19964
     19958     19961     19963     19965     19959     19958     19961     19962
     19959     19958     19961     19963     19960     19958     19961     19962
     19960     19958     19961     19963     19961     19963     19965     19966
     19961     19963     19965     19967     19961     19963     19965     19968
     19962     19961     19963     19964     19962     19961     19963     19965
     19963     19965     19968     19969     19963     19965     19968     19970
     19963     19965     19968     19971     19964     19963     19965     19966
     19964     19963     19965     19967     19964     19963     19965     19968
     19965     19968     19971     19972     19965     19968     19971     19973
     19965     19968     19971     19974     19966     19965     19968     19969
     19966     19965     19968     19970     19966     19965     19968     19971
     19967     19965     19968     19969     19967     19965     19968     19970
     19967     19965     19968     19971     19968     19971     19974     19975
     19968     19971     19974     19976     19968     19971     19974     19977
     19969     19968     19971     19972     19969     19968     19971     19973
     19969     19968     19971     19974     19970     19968     19971     19972
     19970     19968     19971     19973     19970     19968     19971     19974
     19971     19974     19977     19978     19971     19974     19977     19979
     19971     19974     19977     19980     19972     19971     19974     19975
     19972     19971     19974     19976     19972     19971     19974     19977
     19973     19971     19974     19975     19973     19971     19974     19976
     19973     19971     19974     19977     19974     19977     19980     19981
     19974     19977     19980     19982     19974     19977     19980     19983
     19975     19974     19977     19978     19975     19974     19977     19979
     19975     19974     19977     19980     19976     19974     19977     19978
     19976     19974     19977     19979     19976     19974     19977     19980
     19977     19980     19983     19984     19977     19980     19983     19985
     19977     19980     19983     19986     19978     19977     19980     19981
     19978     19977     19980     19982     19978     19977     19980     19983
     19979     19977     19980     19981     19979     19977     19980     19982
     19979     19977     19980     19983     19980     19983     19986     19987
     19980     19983     19986     19988     19980     19983     19986     19989
     19981     19980     19983     19984     19981     19980     19983     19985
     19981     19980     19983     19986     19982     19980     19983     19984
     19982     19980     19983     19985     19982     19980     19983     19986
     19984     19983     19986     19987     19984     19983     19986     19988
     19984     19983     19986     19989     19985     19983     19986     19987
     19985     19983     19986     19988     19985     19983     19986     19989
     19990     19993     19996     19997     19990     19993     19996     19998
     19990     19993     19996     19999     19991     19990     19993     19994
     19991     19990     19993     19995     19991     19990     19993     19996
     19992     19990     19993     19994     19992     19990     19993     19995
     19992     19990     19993     19996     19993     19996     19999     20000
     19993     19996     19999     20001     19993     19996     19999     20002
     19994     19993     19996     19997     19994     19993     19996     19998
     19994     19993     19996     19999     19995     19993     19996     19997
     19995     19993     19996     19998     19995     19993     19996     19999
     19996     19999     20002     20003     19996     19999     20002     20004
     19996     19999     20002     20005     19997     19996     19999     20000
     19997     19996     19999     20001     19997     19996     19999     20002
     19998     19996     19999     20000     19998     19996     19999     20001
     19998     19996     19999     20002     19999     20002     20005     20006
     19999     20002     20005     20007     19999     20002     20005     20008
     20000     19999     20002     20003     20000     19999     20002     20004
     20000     19999     20002     20005     20001     19999     20002     20003
     20001     19999     20002     20004     20001     19999     20002     20005
     20002     20005     20008     20009     20002     20005     20008     20010
     20002     20005     20008     20011     20003     20002     20005     20006
     20003     20002     20005     20007     20003     20002     20005     20008
     20004     20002     20005     20006     20004     20002     20005     20007
     20004     20002     20005     20008     20005     20008     20011     20012
     20005     20008     20011     20013     20005     20008     20011     20014
     20006     20005     20008     20009     20006     20005     20008     20010
     20006     20005     20008     20011     20007     20005     20008     20009
     20007     20005     20008     20010     20007     20005     20008     20011
     20008     20011     20014     20015     20008     20011     20014     20016
     20008     20011     20014     20017     20009     20008     20011     20012
     20009     20008     20011     20013     20009     20008     20011     20014
     20010     20008     20011     20012     20010     20008     20011     20013
     20010     20008     20011     20014     20011     20014     20017     20018
     20011     20014     20017     20019     20011     20014     20017     20020
     20012     20011     20014     20015     20012     20011     20014     20016
     20012     20011     20014     20017     20013     20011     20014     20015
     20013     20011     20014     20016     20013     20011     20014     20017
     20014     20017     20020     20021     20014     20017     20020     20022
     20014     20017     20020     20023     20015     20014     20017     20018
     20015     20014     20017     20019     20015     20014     20017     20020
     20016     20014     20017     20018     20016     20014     20017     20019
     20016     20014     20017     20020     20017     20020     20023     20024
     20017     20020     20023     20025     20017     20020     20023     20026
     20018     20017     20020     20021     20018     20017     20020     20022
     20018     20017     20020     20023     20019     20017     20020     20021
     20019     20017     20020     20022     20019     20017     20020     20023
     20020     20023     20026     20027     20020     20023     20026     20028
     20020     20023     20026     20029     20021     20020     20023     20024
     20021     20020     20023     20025     20021     20020     20023     20026
     20022     20020     20023     20024     20022     20020     20023     20025
     20022     20020     20023     20026     20023     20026     20029     20030
     20023     20026     20029     20031     20023     20026     20029     20032
     20024     20023     20026     20027     20024     20023     20026     20028
     20024     20023     20026     20029     20025     20023     20026     20027
     20025     20023     20026     20028     20025     20023     20026     20029
     20027     20026     20029     20030     20027     20026     20029     20031
     20027     20026     20029     20032     20028     20026     20029     20030
     20028     20026     20029     20031     20028     20026     20029     20032
     20033     20037     20040     20041     20033     20037     20040     20071
     20033     20079     20076     20071     20033     20079     20076     20077
     20033     20079     20076     20078     20034     20033     20035     20036
     20034     20033     20037     20038     20034     20033     20037     20039
     20034     20033     20037     20040     20034     20033     20079     20076
     20034     20033     20079     20080     20034     20033     20079     20081
     20035     20033     20037     20038     20035     20033     20037     20039
     20035     20033     20037     20040     20035     20033     20079     20076
     20035     20033     20079     20080     20035     20033     20079     20081
     20036     20035     20033     20037     20036     20035     20033     20079
     20037     20033     20079     20076     20037     20033     20079     20080
     20037     20033     20079     20081     20037     20040     20041     20042
     20037     20040     20041     20043     20037     20040     20071     20069
     20037     20040     20071     20072     20037     20040     20071     20076
     20038     20037     20033     20079     20038     20037     20040     20041
     20038     20037     20040     20071     20039     20037     20033     20079
     20039     20037     20040     20041     20039     20037     20040     20071
     20040     20037     20033     20079     20040     20041     20043     20044
     20040     20041     20043     20045     20040     20041     20043     20046
     20040     20071     20069     20046     20040     20071     20069     20066
     20040     20071     20069     20070     20040     20071     20072     20073
     20040     20071     20072     20074     20040     20071     20072     20075
     20040     20071     20076     20077     20040     20071     20076     20078
     20040     20071     20076     20079     20041     20040     20071     20069
     20041     20040     20071     20072     20041     20040     20071     20076
     20041     20043     20046     20047     20041     20043     20046     20048
     20041     20043     20046     20069     20042     20041     20040     20071
     20042     20041     20043     20044     20042     20041     20043     20045
     20042     20041     20043     20046     20043     20041     20040     20071
     20043     20046     20048     20049     20043     20046     20048     20050
     20043     20046     20048     20058     20043     20046     20069     20066
     20043     20046     20069     20070     20043     20046     20069     20071
     20044     20043     20046     20047     20044     20043     20046     20048
     20044     20043     20046     20069     20045     20043     20046     20047
     20045     20043     20046     20048     20045     20043     20046     20069
     20046     20048     20050     20051     20046     20048     20050     20052
     20046     20048     20050     20053     20046     20048     20058     20056
     20046     20048     20058     20059     20046     20048     20058     20063
     20046     20069     20066     20063     20046     20069     20066     20067
     20046     20069     20066     20068     20046     20069     20071     20072
     20046     20069     20071     20076     20047     20046     20048     20049
     20047     20046     20048     20050     20047     20046     20048     20058
     20047     20046     20069     20066     20047     20046     20069     20070
     20047     20046     20069     20071     20048     20046     20069     20066
     20048     20046     20069     20070     20048     20046     20069     20071
     20048     20050     20053     20054     20048     20050     20053     20055
     20048     20050     20053     20056     20048     20058     20056     20053
     20048     20058     20056     20057     20048     20058     20056     20082
     20048     20058     20059     20060     20048     20058     20059     20061
     20048     20058     20059     20062     20048     20058     20063     20064
     20048     20058     20063     20065     20048     20058     20063     20066
     20049     20048     20046     20069     20049     20048     20050     20051
     20049     20048     20050     20052     20049     20048     20050     20053
     20049     20048     20058     20056     20049     20048     20058     20059
     20049     20048     20058     20063     20050     20048     20046     20069
     20050     20048     20058     20056     20050     20048     20058     20059
     20050     20048     20058     20063     20050     20053     20056     20057
     20050     20053     20056     20058     20050     20053     20056     20082
     20051     20050     20048     20058     20051     20050     20053     20054
     20051     20050     20053     20055     20051     20050     20053     20056
     20052     20050     20048     20058     20052     20050     20053     20054
     20052     20050     20053     20055     20052     20050     20053     20056
     20053     20050     20048     20058     20053     20056     20058     20059
     20053     20056     20058     20063     20053     20056     20082     20083
     20053     20056     20082     20084     20053     20056     20082     20088
     20054     20053     20056     20057     20054     20053     20056     20058
     20054     20053     20056     20082     20055     20053     20056     20057
     20055     20053     20056     20058     20055     20053     20056     20082
     20056     20058     20059     20060     20056     20058     20059     20061
     20056     20058     20059     20062     20056     20058     20063     20064
     20056     20058     20063     20065     20056     20058     20063     20066
     20056     20082     20084     20085     20056     20082     20084     20086
     20056     20082     20084     20087     20056     20082     20088     20089
     20056     20082     20088     20090     20056     20082     20088     20091
     20057     20056     20058     20059     20057     20056     20058     20063
     20057     20056     20082     20083     20057     20056     20082     20084
     20057     20056     20082     20088     20058     20048     20046     20069
     20058     20056     20082     20083     20058     20056     20082     20084
     20058     20056     20082     20088     20058     20063     20066     20067
     20058     20063     20066     20068     20058     20063     20066     20069
     20059     20058     20056     20082     20059     20058     20063     20064
     20059     20058     20063     20065     20059     20058     20063     20066
     20060     20059     20058     20063     20061     20059     20058     20063
     20062     20059     20058     20063     20063     20058     20056     20082
     20063     20066     20069     20070     20063     20066     20069     20071
     20064     20063     20066     20067     20064     20063     20066     20068
     20064     20063     20066     20069     20065     20063     20066     20067
     20065     20063     20066     20068     20065     20063     20066     20069
     20066     20069     20071     20072     20066     20069     20071     20076
     20067     20066     20069     20070     20067     20066     20069     20071
     20068     20066     20069     20070     20068     20066     20069     20071
     20069     20071     20072     20073     20069     20071     20072     20074
     20069     20071     20072     20075     20069     20071     20076     20077
     20069     20071     20076     20078     20069     20071     20076     20079
     20070     20069     20071     20072     20070     20069     20071     20076
     20071     20076     20079     20080     20071     20076     20079     20081
     20072     20071     20076     20077     20072     20071     20076     20078
     20072     20071     20076     20079     20073     20072     20071     20076
     20074     20072     20071     20076     20075     20072     20071     20076
     20077     20076     20079     20080     20077     20076     20079     20081
     20078     20076     20079     20080     20078     20076     20079     20081
     20082     20088     20091     20092     20082     20088     20091     20093
     20082     20088     20091     20094     20083     20082     20084     20085
     20083     20082     20084     20086     20083     20082     20084     20087
     20083     20082     20088     20089     20083     20082     20088     20090
     20083     20082     20088     20091     20084     20082     20088     20089
     20084     20082     20088     20090     20084     20082     20088     20091
     20085     20084     20082     20088     20086     20084     20082     20088
     20087     20084     20082     20088     20088     20091     20094     20095
     20088     20091     20094     20096     20088     20091     20094     20097
     20089     20088     20091     20092     20089     20088     20091     20093
     20089     20088     20091     20094     20090     20088     20091     20092
     20090     20088     20091     20093     20090     20088     20091     20094
     20091     20094     20097     20098     20091     20094     20097     20099
     20091     20094     20097     20103     20092     20091     20094     20095
     20092     20091     20094     20096     20092     20091     20094     20097
     20093     20091     20094     20095     20093     20091     20094     20096
     20093     20091     20094     20097     20094     20097     20099     20100
     20094     20097     20099     20101     20094     20097     20099     20102
     20094     20097     20103     20104     20094     20097     20103     20105
     20094     20097     20103     20106     20095     20094     20097     20098
     20095     20094     20097     20099     20095     20094     20097     20103
     20096     20094     20097     20098     20096     20094     20097     20099
     20096     20094     20097     20103     20098     20097     20099     20100
     20098     20097     20099     20101     20098     20097     20099     20102
     20098     20097     20103     20104     20098     20097     20103     20105
     20098     20097     20103     20106     20099     20097     20103     20104
     20099     20097     20103     20105     20099     20097     20103     20106
     20100     20099     20097     20103     20101     20099     20097     20103
     20102     20099     20097     20103     20107     20108     20123     20124
     20107     20108     20123     20125     20107     20108     20123     20129
     20108     20107     20111     20112     20108     20107     20111     20113
     20108     20107     20111     20114     20108     20107     20115     20116
     20108     20107     20115     20117     20108     20107     20115     20118
     20108     20107     20119     20120     20108     20107     20119     20121
     20108     20107     20119     20122     20108     20123     20129     20126
     20109     20108     20107     20111     20109     20108     20107     20115
     20109     20108     20107     20119     20109     20108     20123     20124
     20109     20108     20123     20125     20109     20108     20123     20129
     20110     20108     20107     20111     20110     20108     20107     20115
     20110     20108     20107     20119     20110     20108     20123     20124
     20110     20108     20123     20125     20110     20108     20123     20129
     20111     20107     20108     20123     20111     20107     20115     20116
     20111     20107     20115     20117     20111     20107     20115     20118
     20111     20107     20119     20120     20111     20107     20119     20121
     20111     20107     20119     20122     20112     20111     20107     20115
     20112     20111     20107     20119     20113     20111     20107     20115
     20113     20111     20107     20119     20114     20111     20107     20115
     20114     20111     20107     20119     20115     20107     20108     20123
     20115     20107     20119     20120     20115     20107     20119     20121
     20115     20107     20119     20122     20116     20115     20107     20119
     20117     20115     20107     20119     20118     20115     20107     20119
     20119     20107     20108     20123     20123     20129     20126     20127
     20123     20129     20126     20128     20123     20129     20126     20130
     20124     20123     20129     20126     20125     20123     20129     20126
     20126     20130     20131     20132     20126     20130     20131     20133
     20126     20130     20131     20134     20127     20126     20130     20131
     20128     20126     20130     20131     20129     20126     20130     20131
     20130     20131     20134     20135     20130     20131     20134     20136
     20130     20131     20134     20142     20131     20134     20136     20137
     20131     20134     20142     20143     20131     20134     20142     20144
     20131     20134     20142     20145     20132     20131     20134     20135
     20132     20131     20134     20136     20132     20131     20134     20142
     20133     20131     20134     20135     20133     20131     20134     20136
     20133     20131     20134     20142     20134     20136     20137     20138
     20134     20136     20137     20139     20134     20142     20145     20146
     20135     20134     20136     20137     20135     20134     20142     20143
     20135     20134     20142     20144     20135     20134     20142     20145
     20136     20134     20142     20143     20136     20134     20142     20144
     20136     20134     20142     20145     20136     20137     20139     20140
     20136     20137     20139     20141     20136     20137     20139     20151
     20137     20136     20134     20142     20137     20139     20151     20152
     20137     20139     20151     20153     20137     20139     20151     20154
     20138     20137     20139     20140     20138     20137     20139     20141
     20138     20137     20139     20151     20139     20151     20154     20155
     20139     20151     20154     20156     20139     20151     20154     20157
     20140     20139     20151     20152     20140     20139     20151     20153
     20140     20139     20151     20154     20141     20139     20151     20152
     20141     20139     20151     20153     20141     20139     20151     20154
     20142     20145     20146     20147     20142     20145     20146     20148
     20143     20142     20145     20146     20144     20142     20145     20146
     20145     20146     20148     20149     20145     20146     20148     20150
     20145     20146     20148     20198     20146     20148     20198     20199
     20146     20148     20198     20200     20146     20148     20198     20201
     20147     20146     20148     20149     20147     20146     20148     20150
     20147     20146     20148     20198     20148     20198     20201     20202
     20148     20198     20201     20203     20148     20198     20201     20204
     20149     20148     20198     20199     20149     20148     20198     20200
     20149     20148     20198     20201     20150     20148     20198     20199
     20150     20148     20198     20200     20150     20148     20198     20201
     20151     20154     20157     20158     20151     20154     20157     20159
     20152     20151     20154     20155     20152     20151     20154     20156
     20152     20151     20154     20157     20153     20151     20154     20155
     20153     20151     20154     20156     20153     20151     20154     20157
     20154     20157     20159     20160     20154     20157     20159     20161
     20155     20154     20157     20158     20155     20154     20157     20159
     20156     20154     20157     20158     20156     20154     20157     20159
     20157     20159     20161     20162     20157     20159     20161     20163
     20157     20159     20161     20164     20158     20157     20159     20160
     20158     20157     20159     20161     20159     20161     20164     20165
     20159     20161     20164     20166     20160     20159     20161     20162
     20160     20159     20161     20163     20160     20159     20161     20164
     20161     20164     20166     20167     20161     20164     20166     20168
     20162     20161     20164     20165     20162     20161     20164     20166
     20163     20161     20164     20165     20163     20161     20164     20166
     20164     20166     20168     20169     20164     20166     20168     20170
     20164     20166     20168     20171     20165     20164     20166     20167
     20165     20164     20166     20168     20166     20168     20171     20172
     20166     20168     20171     20173     20167     20166     20168     20169
     20167     20166     20168     20170     20167     20166     20168     20171
     20168     20171     20173     20174     20168     20171     20173     20175
     20169     20168     20171     20172     20169     20168     20171     20173
     20170     20168     20171     20172     20170     20168     20171     20173
     20171     20173     20175     20176     20171     20173     20175     20177
     20171     20173     20175     20178     20172     20171     20173     20174
     20172     20171     20173     20175     20173     20175     20178     20179
     20173     20175     20178     20180     20174     20173     20175     20176
     20174     20173     20175     20177     20174     20173     20175     20178
     20175     20178     20180     20181     20175     20178     20180     20182
     20176     20175     20178     20179     20176     20175     20178     20180
     20177     20175     20178     20179     20177     20175     20178     20180
     20178     20180     20182     20183     20178     20180     20182     20184
     20178     20180     20182     20185     20179     20178     20180     20181
     20179     20178     20180     20182     20180     20182     20185     20186
     20180     20182     20185     20187     20180     20182     20185     20188
     20181     20180     20182     20183     20181     20180     20182     20184
     20181     20180     20182     20185     20182     20185     20188     20189
     20182     20185     20188     20190     20182     20185     20188     20191
     20183     20182     20185     20186     20183     20182     20185     20187
     20183     20182     20185     20188     20184     20182     20185     20186
     20184     20182     20185     20187     20184     20182     20185     20188
     20185     20188     20191     20192     20185     20188     20191     20193
     20185     20188     20191     20194     20186     20185     20188     20189
     20186     20185     20188     20190     20186     20185     20188     20191
     20187     20185     20188     20189     20187     20185     20188     20190
     20187     20185     20188     20191     20188     20191     20194     20195
     20188     20191     20194     20196     20188     20191     20194     20197
     20189     20188     20191     20192     20189     20188     20191     20193
     20189     20188     20191     20194     20190     20188     20191     20192
     20190     20188     20191     20193     20190     20188     20191     20194
     20192     20191     20194     20195     20192     20191     20194     20196
     20192     20191     20194     20197     20193     20191     20194     20195
     20193     20191     20194     20196     20193     20191     20194     20197
     20198     20201     20204     20205     20198     20201     20204     20206
     20198     20201     20204     20207     20199     20198     20201     20202
     20199     20198     20201     20203     20199     20198     20201     20204
     20200     20198     20201     20202     20200     20198     20201     20203
     20200     20198     20201     20204     20201     20204     20207     20208
     20201     20204     20207     20209     20201     20204     20207     20210
     20202     20201     20204     20205     20202     20201     20204     20206
     20202     20201     20204     20207     20203     20201     20204     20205
     20203     20201     20204     20206     20203     20201     20204     20207
     20204     20207     20210     20211     20204     20207     20210     20212
     20204     20207     20210     20213     20205     20204     20207     20208
     20205     20204     20207     20209     20205     20204     20207     20210
     20206     20204     20207     20208     20206     20204     20207     20209
     20206     20204     20207     20210     20207     20210     20213     20214
     20207     20210     20213     20215     20207     20210     20213     20216
     20208     20207     20210     20211     20208     20207     20210     20212
     20208     20207     20210     20213     20209     20207     20210     20211
     20209     20207     20210     20212     20209     20207     20210     20213
     20210     20213     20216     20217     20210     20213     20216     20218
     20210     20213     20216     20219     20211     20210     20213     20214
     20211     20210     20213     20215     20211     20210     20213     20216
     20212     20210     20213     20214     20212     20210     20213     20215
     20212     20210     20213     20216     20213     20216     20219     20220
     20213     20216     20219     20221     20213     20216     20219     20222
     20214     20213     20216     20217     20214     20213     20216     20218
     20214     20213     20216     20219     20215     20213     20216     20217
     20215     20213     20216     20218     20215     20213     20216     20219
     20216     20219     20222     20223     20216     20219     20222     20224
     20216     20219     20222     20225     20217     20216     20219     20220
     20217     20216     20219     20221     20217     20216     20219     20222
     20218     20216     20219     20220     20218     20216     20219     20221
     20218     20216     20219     20222     20219     20222     20225     20226
     20219     20222     20225     20227     20219     20222     20225     20228
     20220     20219     20222     20223     20220     20219     20222     20224
     20220     20219     20222     20225     20221     20219     20222     20223
     20221     20219     20222     20224     20221     20219     20222     20225
     20222     20225     20228     20229     20222     20225     20228     20230
     20222     20225     20228     20231     20223     20222     20225     20226
     20223     20222     20225     20227     20223     20222     20225     20228
     20224     20222     20225     20226     20224     20222     20225     20227
     20224     20222     20225     20228     20225     20228     20231     20232
     20225     20228     20231     20233     20225     20228     20231     20234
     20226     20225     20228     20229     20226     20225     20228     20230
     20226     20225     20228     20231     20227     20225     20228     20229
     20227     20225     20228     20230     20227     20225     20228     20231
     20228     20231     20234     20235     20228     20231     20234     20236
     20228     20231     20234     20237     20229     20228     20231     20232
     20229     20228     20231     20233     20229     20228     20231     20234
     20230     20228     20231     20232     20230     20228     20231     20233
     20230     20228     20231     20234     20231     20234     20237     20238
     20231     20234     20237     20239     20231     20234     20237     20240
     20232     20231     20234     20235     20232     20231     20234     20236
     20232     20231     20234     20237     20233     20231     20234     20235
     20233     20231     20234     20236     20233     20231     20234     20237
     20234     20237     20240     20241     20234     20237     20240     20242
     20234     20237     20240     20243     20235     20234     20237     20238
     20235     20234     20237     20239     20235     20234     20237     20240
     20236     20234     20237     20238     20236     20234     20237     20239
     20236     20234     20237     20240     20237     20240     20243     20244
     20237     20240     20243     20245     20237     20240     20243     20246
     20238     20237     20240     20241     20238     20237     20240     20242
     20238     20237     20240     20243     20239     20237     20240     20241
     20239     20237     20240     20242     20239     20237     20240     20243
     20241     20240     20243     20244     20241     20240     20243     20245
     20241     20240     20243     20246     20242     20240     20243     20244
     20242     20240     20243     20245     20242     20240     20243     20246
     20247     20251     20254     20255     20247     20251     20254     20256
     20247     20251     20254     20260     20248     20247     20251     20252
     20248     20247     20251     20253     20248     20247     20251     20254
     20249     20247     20251     20252     20249     20247     20251     20253
     20249     20247     20251     20254     20250     20247     20251     20252
     20250     20247     20251     20253     20250     20247     20251     20254
     20251     20254     20260     20257     20252     20251     20254     20255
     20252     20251     20254     20256     20252     20251     20254     20260
     20253     20251     20254     20255     20253     20251     20254     20256
     20253     20251     20254     20260     20254     20260     20257     20258
     20254     20260     20257     20259     20254     20260     20257     20261
     20255     20254     20260     20257     20256     20254     20260     20257
     20257     20261     20262     20263     20257     20261     20262     20264
     20257     20261     20262     20265     20258     20257     20261     20262
     20259     20257     20261     20262     20260     20257     20261     20262
     20261     20262     20265     20266     20261     20262     20265     20267
     20261     20262     20265     20273     20262     20265     20267     20268
     20262     20265     20273     20274     20262     20265     20273     20275
     20262     20265     20273     20276     20263     20262     20265     20266
     20263     20262     20265     20267     20263     20262     20265     20273
     20264     20262     20265     20266     20264     20262     20265     20267
     20264     20262     20265     20273     20265     20267     20268     20269
     20265     20267     20268     20270     20265     20273     20276     20277
     20266     20265     20267     20268     20266     20265     20273     20274
     20266     20265     20273     20275     20266     20265     20273     20276
     20267     20265     20273     20274     20267     20265     20273     20275
     20267     20265     20273     20276     20267     20268     20270     20271
     20267     20268     20270     20272     20267     20268     20270     20282
     20268     20267     20265     20273     20268     20270     20282     20283
     20268     20270     20282     20284     20268     20270     20282     20285
     20269     20268     20270     20271     20269     20268     20270     20272
     20269     20268     20270     20282     20270     20282     20285     20286
     20270     20282     20285     20287     20270     20282     20285     20288
     20271     20270     20282     20283     20271     20270     20282     20284
     20271     20270     20282     20285     20272     20270     20282     20283
     20272     20270     20282     20284     20272     20270     20282     20285
     20273     20276     20277     20278     20273     20276     20277     20279
     20274     20273     20276     20277     20275     20273     20276     20277
     20276     20277     20279     20280     20276     20277     20279     20281
     20276     20277     20279     20329     20277     20279     20329     20330
     20277     20279     20329     20331     20277     20279     20329     20332
     20278     20277     20279     20280     20278     20277     20279     20281
     20278     20277     20279     20329     20279     20329     20332     20333
     20279     20329     20332     20334     20279     20329     20332     20335
     20280     20279     20329     20330     20280     20279     20329     20331
     20280     20279     20329     20332     20281     20279     20329     20330
     20281     20279     20329     20331     20281     20279     20329     20332
     20282     20285     20288     20289     20282     20285     20288     20290
     20283     20282     20285     20286     20283     20282     20285     20287
     20283     20282     20285     20288     20284     20282     20285     20286
     20284     20282     20285     20287     20284     20282     20285     20288
     20285     20288     20290     20291     20285     20288     20290     20292
     20286     20285     20288     20289     20286     20285     20288     20290
     20287     20285     20288     20289     20287     20285     20288     20290
     20288     20290     20292     20293     20288     20290     20292     20294
     20288     20290     20292     20295     20289     20288     20290     20291
     20289     20288     20290     20292     20290     20292     20295     20296
     20290     20292     20295     20297     20291     20290     20292     20293
     20291     20290     20292     20294     20291     20290     20292     20295
     20292     20295     20297     20298     20292     20295     20297     20299
     20293     20292     20295     20296     20293     20292     20295     20297
     20294     20292     20295     20296     20294     20292     20295     20297
     20295     20297     20299     20300     20295     20297     20299     20301
     20295     20297     20299     20302     20296     20295     20297     20298
     20296     20295     20297     20299     20297     20299     20302     20303
     20297     20299     20302     20304     20298     20297     20299     20300
     20298     20297     20299     20301     20298     20297     20299     20302
     20299     20302     20304     20305     20299     20302     20304     20306
     20300     20299     20302     20303     20300     20299     20302     20304
     20301     20299     20302     20303     20301     20299     20302     20304
     20302     20304     20306     20307     20302     20304     20306     20308
     20302     20304     20306     20309     20303     20302     20304     20305
     20303     20302     20304     20306     20304     20306     20309     20310
     20304     20306     20309     20311     20305     20304     20306     20307
     20305     20304     20306     20308     20305     20304     20306     20309
     20306     20309     20311     20312     20306     20309     20311     20313
     20307     20306     20309     20310     20307     20306     20309     20311
     20308     20306     20309     20310     20308     20306     20309     20311
     20309     20311     20313     20314     20309     20311     20313     20315
     20309     20311     20313     20316     20310     20309     20311     20312
     20310     20309     20311     20313     20311     20313     20316     20317
     20311     20313     20316     20318     20311     20313     20316     20319
     20312     20311     20313     20314     20312     20311     20313     20315
     20312     20311     20313     20316     20313     20316     20319     20320
     20313     20316     20319     20321     20313     20316     20319     20322
     20314     20313     20316     20317     20314     20313     20316     20318
     20314     20313     20316     20319     20315     20313     20316     20317
     20315     20313     20316     20318     20315     20313     20316     20319
     20316     20319     20322     20323     20316     20319     20322     20324
     20316     20319     20322     20325     20317     20316     20319     20320
     20317     20316     20319     20321     20317     20316     20319     20322
     20318     20316     20319     20320     20318     20316     20319     20321
     20318     20316     20319     20322     20319     20322     20325     20326
     20319     20322     20325     20327     20319     20322     20325     20328
     20320     20319     20322     20323     20320     20319     20322     20324
     20320     20319     20322     20325     20321     20319     20322     20323
     20321     20319     20322     20324     20321     20319     20322     20325
     20323     20322     20325     20326     20323     20322     20325     20327
     20323     20322     20325     20328     20324     20322     20325     20326
     20324     20322     20325     20327     20324     20322     20325     20328
     20329     20332     20335     20336     20329     20332     20335     20337
     20329     20332     20335     20338     20330     20329     20332     20333
     20330     20329     20332     20334     20330     20329     20332     20335
     20331     20329     20332     20333     20331     20329     20332     20334
     20331     20329     20332     20335     20332     20335     20338     20339
     20332     20335     20338     20340     20332     20335     20338     20341
     20333     20332     20335     20336     20333     20332     20335     20337
     20333     20332     20335     20338     20334     20332     20335     20336
     20334     20332     20335     20337     20334     20332     20335     20338
     20335     20338     20341     20342     20335     20338     20341     20343
     20335     20338     20341     20344     20336     20335     20338     20339
     20336     20335     20338     20340     20336     20335     20338     20341
     20337     20335     20338     20339     20337     20335     20338     20340
     20337     20335     20338     20341     20338     20341     20344     20345
     20338     20341     20344     20346     20338     20341     20344     20347
     20339     20338     20341     20342     20339     20338     20341     20343
     20339     20338     20341     20344     20340     20338     20341     20342
     20340     20338     20341     20343     20340     20338     20341     20344
     20341     20344     20347     20348     20341     20344     20347     20349
     20341     20344     20347     20350     20342     20341     20344     20345
     20342     20341     20344     20346     20342     20341     20344     20347
     20343     20341     20344     20345     20343     20341     20344     20346
     20343     20341     20344     20347     20344     20347     20350     20351
     20344     20347     20350     20352     20344     20347     20350     20353
     20345     20344     20347     20348     20345     20344     20347     20349
     20345     20344     20347     20350     20346     20344     20347     20348
     20346     20344     20347     20349     20346     20344     20347     20350
     20347     20350     20353     20354     20347     20350     20353     20355
     20347     20350     20353     20356     20348     20347     20350     20351
     20348     20347     20350     20352     20348     20347     20350     20353
     20349     20347     20350     20351     20349     20347     20350     20352
     20349     20347     20350     20353     20350     20353     20356     20357
     20350     20353     20356     20358     20350     20353     20356     20359
     20351     20350     20353     20354     20351     20350     20353     20355
     20351     20350     20353     20356     20352     20350     20353     20354
     20352     20350     20353     20355     20352     20350     20353     20356
     20353     20356     20359     20360     20353     20356     20359     20361
     20353     20356     20359     20362     20354     20353     20356     20357
     20354     20353     20356     20358     20354     20353     20356     20359
     20355     20353     20356     20357     20355     20353     20356     20358
     20355     20353     20356     20359     20356     20359     20362     20363
     20356     20359     20362     20364     20356     20359     20362     20365
     20357     20356     20359     20360     20357     20356     20359     20361
     20357     20356     20359     20362     20358     20356     20359     20360
     20358     20356     20359     20361     20358     20356     20359     20362
     20359     20362     20365     20366     20359     20362     20365     20367
     20359     20362     20365     20368     20360     20359     20362     20363
     20360     20359     20362     20364     20360     20359     20362     20365
     20361     20359     20362     20363     20361     20359     20362     20364
     20361     20359     20362     20365     20362     20365     20368     20369
     20362     20365     20368     20370     20362     20365     20368     20371
     20363     20362     20365     20366     20363     20362     20365     20367
     20363     20362     20365     20368     20364     20362     20365     20366
     20364     20362     20365     20367     20364     20362     20365     20368
     20365     20368     20371     20372     20365     20368     20371     20373
     20365     20368     20371     20374     20366     20365     20368     20369
     20366     20365     20368     20370     20366     20365     20368     20371
     20367     20365     20368     20369     20367     20365     20368     20370
     20367     20365     20368     20371     20368     20371     20374     20375
     20368     20371     20374     20376     20368     20371     20374     20377
     20369     20368     20371     20372     20369     20368     20371     20373
     20369     20368     20371     20374     20370     20368     20371     20372
     20370     20368     20371     20373     20370     20368     20371     20374
     20372     20371     20374     20375     20372     20371     20374     20376
     20372     20371     20374     20377     20373     20371     20374     20375
     20373     20371     20374     20376     20373     20371     20374     20377
     20378     20391     20394     20395     20378     20391     20394     20396
     20378     20391     20394     20401     20379     20378     20383     20384
     20379     20378     20383     20385     20379     20378     20383     20386
     20379     20378     20387     20388     20379     20378     20387     20389
     20379     20378     20387     20390     20379     20378     20391     20392
     20379     20378     20391     20393     20379     20378     20391     20394
     20380     20379     20378     20383     20380     20379     20378     20387
     20380     20379     20378     20391     20381     20379     20378     20383
     20381     20379     20378     20387     20381     20379     20378     20391
     20382     20379     20378     20383     20382     20379     20378     20387
     20382     20379     20378     20391     20383     20378     20387     20388
     20383     20378     20387     20389     20383     20378     20387     20390
     20383     20378     20391     20392     20383     20378     20391     20393
     20383     20378     20391     20394     20384     20383     20378     20387
     20384     20383     20378     20391     20385     20383     20378     20387
     20385     20383     20378     20391     20386     20383     20378     20387
     20386     20383     20378     20391     20387     20378     20391     20392
     20387     20378     20391     20393     20387     20378     20391     20394
     20388     20387     20378     20391     20389     20387     20378     20391
     20390     20387     20378     20391     20391     20394     20401     20397
     20392     20391     20394     20395     20392     20391     20394     20396
     20392     20391     20394     20401     20393     20391     20394     20395
     20393     20391     20394     20396     20393     20391     20394     20401
     20394     20401     20397     20398     20394     20401     20397     20399
     20394     20401     20397     20400     20395     20394     20401     20397
     20396     20394     20401     20397     20397     20400     20402     20403
     20397     20400     20402     20404     20397     20400     20402     20407
     20398     20397     20400     20402     20399     20397     20400     20402
     20400     20402     20407     20405     20400     20402     20407     20408
     20400     20402     20407     20409     20401     20397     20400     20402
     20402     20407     20405     20406     20402     20407     20405     20457
     20402     20407     20409     20410     20402     20407     20409     20411
     20402     20407     20409     20413     20403     20402     20407     20405
     20403     20402     20407     20408     20403     20402     20407     20409
     20404     20402     20407     20405     20404     20402     20407     20408
     20404     20402     20407     20409     20405     20407     20409     20410
     20405     20407     20409     20411     20405     20407     20409     20413
     20405     20457     20459     20460     20405     20457     20459     20461
     20405     20457     20459     20462     20406     20405     20407     20408
     20406     20405     20407     20409     20406     20405     20457     20458
     20406     20405     20457     20459     20407     20405     20457     20458
     20407     20405     20457     20459     20407     20409     20411     20412
     20407     20409     20413     20414     20407     20409     20413     20415
     20408     20407     20405     20457     20408     20407     20409     20410
     20408     20407     20409     20411     20408     20407     20409     20413
     20409     20407     20405     20457     20409     20413     20415     20416
     20409     20413     20415     20417     20410     20409     20411     20412
     20410     20409     20413     20414     20410     20409     20413     20415
     20411     20409     20413     20414     20411     20409     20413     20415
     20412     20411     20409     20413     20413     20415     20417     20418
     20413     20415     20417     20419     20413     20415     20417     20420
     20414     20413     20415     20416     20414     20413     20415     20417
     20415     20417     20420     20421     20415     20417     20420     20422
     20415     20417     20420     20423     20416     20415     20417     20418
     20416     20415     20417     20419     20416     20415     20417     20420
     20417     20420     20423     20424     20417     20420     20423     20425
     20417     20420     20423     20426     20418     20417     20420     20421
     20418     20417     20420     20422     20418     20417     20420     20423
     20419     20417     20420     20421     20419     20417     20420     20422
     20419     20417     20420     20423     20420     20423     20426     20427
     20420     20423     20426     20428     20420     20423     20426     20429
     20421     20420     20423     20424     20421     20420     20423     20425
     20421     20420     20423     20426     20422     20420     20423     20424
     20422     20420     20423     20425     20422     20420     20423     20426
     20423     20426     20429     20430     20423     20426     20429     20431
     20423     20426     20429     20432     20424     20423     20426     20427
     20424     20423     20426     20428     20424     20423     20426     20429
     20425     20423     20426     20427     20425     20423     20426     20428
     20425     20423     20426     20429     20426     20429     20432     20433
     20426     20429     20432     20434     20426     20429     20432     20435
     20427     20426     20429     20430     20427     20426     20429     20431
     20427     20426     20429     20432     20428     20426     20429     20430
     20428     20426     20429     20431     20428     20426     20429     20432
     20429     20432     20435     20436     20429     20432     20435     20437
     20429     20432     20435     20438     20430     20429     20432     20433
     20430     20429     20432     20434     20430     20429     20432     20435
     20431     20429     20432     20433     20431     20429     20432     20434
     20431     20429     20432     20435     20432     20435     20438     20439
     20432     20435     20438     20440     20432     20435     20438     20441
     20433     20432     20435     20436     20433     20432     20435     20437
     20433     20432     20435     20438     20434     20432     20435     20436
     20434     20432     20435     20437     20434     20432     20435     20438
     20435     20438     20441     20442     20435     20438     20441     20443
     20435     20438     20441     20444     20436     20435     20438     20439
     20436     20435     20438     20440     20436     20435     20438     20441
     20437     20435     20438     20439     20437     20435     20438     20440
     20437     20435     20438     20441     20438     20441     20444     20445
     20438     20441     20444     20446     20438     20441     20444     20447
     20439     20438     20441     20442     20439     20438     20441     20443
     20439     20438     20441     20444     20440     20438     20441     20442
     20440     20438     20441     20443     20440     20438     20441     20444
     20441     20444     20447     20448     20441     20444     20447     20449
     20441     20444     20447     20450     20442     20441     20444     20445
     20442     20441     20444     20446     20442     20441     20444     20447
     20443     20441     20444     20445     20443     20441     20444     20446
     20443     20441     20444     20447     20444     20447     20450     20451
     20444     20447     20450     20452     20444     20447     20450     20453
     20445     20444     20447     20448     20445     20444     20447     20449
     20445     20444     20447     20450     20446     20444     20447     20448
     20446     20444     20447     20449     20446     20444     20447     20450
     20447     20450     20453     20454     20447     20450     20453     20455
     20447     20450     20453     20456     20448     20447     20450     20451
     20448     20447     20450     20452     20448     20447     20450     20453
     20449     20447     20450     20451     20449     20447     20450     20452
     20449     20447     20450     20453     20451     20450     20453     20454
     20451     20450     20453     20455     20451     20450     20453     20456
     20452     20450     20453     20454     20452     20450     20453     20455
     20452     20450     20453     20456     20457     20459     20462     20463
     20457     20459     20462     20464     20457     20459     20462     20465
     20458     20457     20459     20460     20458     20457     20459     20461
     20458     20457     20459     20462     20459     20462     20465     20466
     20459     20462     20465     20467     20459     20462     20465     20468
     20460     20459     20462     20463     20460     20459     20462     20464
     20460     20459     20462     20465     20461     20459     20462     20463
     20461     20459     20462     20464     20461     20459     20462     20465
     20462     20465     20468     20469     20462     20465     20468     20470
     20462     20465     20468     20471     20463     20462     20465     20466
     20463     20462     20465     20467     20463     20462     20465     20468
     20464     20462     20465     20466     20464     20462     20465     20467
     20464     20462     20465     20468     20465     20468     20471     20472
     20465     20468     20471     20473     20465     20468     20471     20474
     20466     20465     20468     20469     20466     20465     20468     20470
     20466     20465     20468     20471     20467     20465     20468     20469
     20467     20465     20468     20470     20467     20465     20468     20471
     20468     20471     20474     20475     20468     20471     20474     20476
     20468     20471     20474     20477     20469     20468     20471     20472
     20469     20468     20471     20473     20469     20468     20471     20474
     20470     20468     20471     20472     20470     20468     20471     20473
     20470     20468     20471     20474     20471     20474     20477     20478
     20471     20474     20477     20479     20471     20474     20477     20480
     20472     20471     20474     20475     20472     20471     20474     20476
     20472     20471     20474     20477     20473     20471     20474     20475
     20473     20471     20474     20476     20473     20471     20474     20477
     20474     20477     20480     20481     20474     20477     20480     20482
     20475     20474     20477     20478     20475     20474     20477     20479
     20475     20474     20477     20480     20476     20474     20477     20478
     20476     20474     20477     20479     20476     20474     20477     20480
     20477     20480     20482     20483     20477     20480     20482     20484
     20478     20477     20480     20481     20478     20477     20480     20482
     20479     20477     20480     20481     20479     20477     20480     20482
     20480     20482     20484     20485     20480     20482     20484     20486
     20480     20482     20484     20487     20481     20480     20482     20483
     20481     20480     20482     20484     20482     20484     20487     20488
     20482     20484     20487     20489     20482     20484     20487     20490
     20483     20482     20484     20485     20483     20482     20484     20486
     20483     20482     20484     20487     20484     20487     20490     20491
     20484     20487     20490     20492     20484     20487     20490     20493
     20485     20484     20487     20488     20485     20484     20487     20489
     20485     20484     20487     20490     20486     20484     20487     20488
     20486     20484     20487     20489     20486     20484     20487     20490
     20487     20490     20493     20494     20487     20490     20493     20495
     20487     20490     20493     20496     20488     20487     20490     20491
     20488     20487     20490     20492     20488     20487     20490     20493
     20489     20487     20490     20491     20489     20487     20490     20492
     20489     20487     20490     20493     20490     20493     20496     20497
     20490     20493     20496     20498     20490     20493     20496     20499
     20491     20490     20493     20494     20491     20490     20493     20495
     20491     20490     20493     20496     20492     20490     20493     20494
     20492     20490     20493     20495     20492     20490     20493     20496
     20493     20496     20499     20500     20493     20496     20499     20501
     20493     20496     20499     20502     20494     20493     20496     20497
     20494     20493     20496     20498     20494     20493     20496     20499
     20495     20493     20496     20497     20495     20493     20496     20498
     20495     20493     20496     20499     20496     20499     20502     20503
     20496     20499     20502     20504     20496     20499     20502     20505
     20497     20496     20499     20500     20497     20496     20499     20501
     20497     20496     20499     20502     20498     20496     20499     20500
     20498     20496     20499     20501     20498     20496     20499     20502
     20499     20502     20505     20506     20499     20502     20505     20507
     20499     20502     20505     20508     20500     20499     20502     20503
     20500     20499     20502     20504     20500     20499     20502     20505
     20501     20499     20502     20503     20501     20499     20502     20504
     20501     20499     20502     20505     20503     20502     20505     20506
     20503     20502     20505     20507     20503     20502     20505     20508
     20504     20502     20505     20506     20504     20502     20505     20507
     20504     20502     20505     20508     20509     20513     20516     20517
     20509     20513     20516     20518     20509     20513     20516     20522
     20510     20509     20513     20514     20510     20509     20513     20515
     20510     20509     20513     20516     20511     20509     20513     20514
     20511     20509     20513     20515     20511     20509     20513     20516
     20512     20509     20513     20514     20512     20509     20513     20515
     20512     20509     20513     20516     20513     20516     20522     20519
     20514     20513     20516     20517     20514     20513     20516     20518
     20514     20513     20516     20522     20515     20513     20516     20517
     20515     20513     20516     20518     20515     20513     20516     20522
     20516     20522     20519     20520     20516     20522     20519     20521
     20516     20522     20519     20523     20517     20516     20522     20519
     20518     20516     20522     20519     20519     20523     20524     20525
     20519     20523     20524     20526     20519     20523     20524     20527
     20520     20519     20523     20524     20521     20519     20523     20524
     20522     20519     20523     20524     20523     20524     20527     20528
     20523     20524     20527     20529     20523     20524     20527     20535
     20524     20527     20529     20530     20524     20527     20535     20536
     20524     20527     20535     20537     20524     20527     20535     20538
     20525     20524     20527     20528     20525     20524     20527     20529
     20525     20524     20527     20535     20526     20524     20527     20528
     20526     20524     20527     20529     20526     20524     20527     20535
     20527     20529     20530     20531     20527     20529     20530     20532
     20527     20535     20538     20539     20528     20527     20529     20530
     20528     20527     20535     20536     20528     20527     20535     20537
     20528     20527     20535     20538     20529     20527     20535     20536
     20529     20527     20535     20537     20529     20527     20535     20538
     20529     20530     20532     20533     20529     20530     20532     20534
     20529     20530     20532     20544     20530     20529     20527     20535
     20530     20532     20544     20545     20530     20532     20544     20546
     20530     20532     20544     20547     20531     20530     20532     20533
     20531     20530     20532     20534     20531     20530     20532     20544
     20532     20544     20547     20548     20532     20544     20547     20549
     20532     20544     20547     20550     20533     20532     20544     20545
     20533     20532     20544     20546     20533     20532     20544     20547
     20534     20532     20544     20545     20534     20532     20544     20546
     20534     20532     20544     20547     20535     20538     20539     20540
     20535     20538     20539     20541     20536     20535     20538     20539
     20537     20535     20538     20539     20538     20539     20541     20542
     20538     20539     20541     20543     20538     20539     20541     20591
     20539     20541     20591     20592     20539     20541     20591     20593
     20539     20541     20591     20594     20540     20539     20541     20542
     20540     20539     20541     20543     20540     20539     20541     20591
     20541     20591     20594     20595     20541     20591     20594     20596
     20541     20591     20594     20597     20542     20541     20591     20592
     20542     20541     20591     20593     20542     20541     20591     20594
     20543     20541     20591     20592     20543     20541     20591     20593
     20543     20541     20591     20594     20544     20547     20550     20551
     20544     20547     20550     20552     20544     20547     20550     20553
     20545     20544     20547     20548     20545     20544     20547     20549
     20545     20544     20547     20550     20546     20544     20547     20548
     20546     20544     20547     20549     20546     20544     20547     20550
     20547     20550     20553     20554     20547     20550     20553     20555
     20547     20550     20553     20556     20548     20547     20550     20551
     20548     20547     20550     20552     20548     20547     20550     20553
     20549     20547     20550     20551     20549     20547     20550     20552
     20549     20547     20550     20553     20550     20553     20556     20557
     20550     20553     20556     20558     20550     20553     20556     20559
     20551     20550     20553     20554     20551     20550     20553     20555
     20551     20550     20553     20556     20552     20550     20553     20554
     20552     20550     20553     20555     20552     20550     20553     20556
     20553     20556     20559     20560     20553     20556     20559     20561
     20553     20556     20559     20562     20554     20553     20556     20557
     20554     20553     20556     20558     20554     20553     20556     20559
     20555     20553     20556     20557     20555     20553     20556     20558
     20555     20553     20556     20559     20556     20559     20562     20563
     20556     20559     20562     20564     20557     20556     20559     20560
     20557     20556     20559     20561     20557     20556     20559     20562
     20558     20556     20559     20560     20558     20556     20559     20561
     20558     20556     20559     20562     20559     20562     20564     20565
     20559     20562     20564     20566     20560     20559     20562     20563
     20560     20559     20562     20564     20561     20559     20562     20563
     20561     20559     20562     20564     20562     20564     20566     20567
     20562     20564     20566     20568     20562     20564     20566     20569
     20563     20562     20564     20565     20563     20562     20564     20566
     20564     20566     20569     20570     20564     20566     20569     20571
     20564     20566     20569     20572     20565     20564     20566     20567
     20565     20564     20566     20568     20565     20564     20566     20569
     20566     20569     20572     20573     20566     20569     20572     20574
     20566     20569     20572     20575     20567     20566     20569     20570
     20567     20566     20569     20571     20567     20566     20569     20572
     20568     20566     20569     20570     20568     20566     20569     20571
     20568     20566     20569     20572     20569     20572     20575     20576
     20569     20572     20575     20577     20569     20572     20575     20578
     20570     20569     20572     20573     20570     20569     20572     20574
     20570     20569     20572     20575     20571     20569     20572     20573
     20571     20569     20572     20574     20571     20569     20572     20575
     20572     20575     20578     20579     20572     20575     20578     20580
     20572     20575     20578     20581     20573     20572     20575     20576
     20573     20572     20575     20577     20573     20572     20575     20578
     20574     20572     20575     20576     20574     20572     20575     20577
     20574     20572     20575     20578     20575     20578     20581     20582
     20575     20578     20581     20583     20575     20578     20581     20584
     20576     20575     20578     20579     20576     20575     20578     20580
     20576     20575     20578     20581     20577     20575     20578     20579
     20577     20575     20578     20580     20577     20575     20578     20581
     20578     20581     20584     20585     20578     20581     20584     20586
     20578     20581     20584     20587     20579     20578     20581     20582
     20579     20578     20581     20583     20579     20578     20581     20584
     20580     20578     20581     20582     20580     20578     20581     20583
     20580     20578     20581     20584     20581     20584     20587     20588
     20581     20584     20587     20589     20581     20584     20587     20590
     20582     20581     20584     20585     20582     20581     20584     20586
     20582     20581     20584     20587     20583     20581     20584     20585
     20583     20581     20584     20586     20583     20581     20584     20587
     20585     20584     20587     20588     20585     20584     20587     20589
     20585     20584     20587     20590     20586     20584     20587     20588
     20586     20584     20587     20589     20586     20584     20587     20590
     20591     20594     20597     20598     20591     20594     20597     20599
     20591     20594     20597     20600     20592     20591     20594     20595
     20592     20591     20594     20596     20592     20591     20594     20597
     20593     20591     20594     20595     20593     20591     20594     20596
     20593     20591     20594     20597     20594     20597     20600     20601
     20594     20597     20600     20602     20594     20597     20600     20603
     20595     20594     20597     20598     20595     20594     20597     20599
     20595     20594     20597     20600     20596     20594     20597     20598
     20596     20594     20597     20599     20596     20594     20597     20600
     20597     20600     20603     20604     20597     20600     20603     20605
     20597     20600     20603     20606     20598     20597     20600     20601
     20598     20597     20600     20602     20598     20597     20600     20603
     20599     20597     20600     20601     20599     20597     20600     20602
     20599     20597     20600     20603     20600     20603     20606     20607
     20600     20603     20606     20608     20600     20603     20606     20609
     20601     20600     20603     20604     20601     20600     20603     20605
     20601     20600     20603     20606     20602     20600     20603     20604
     20602     20600     20603     20605     20602     20600     20603     20606
     20603     20606     20609     20610     20603     20606     20609     20611
     20603     20606     20609     20612     20604     20603     20606     20607
     20604     20603     20606     20608     20604     20603     20606     20609
     20605     20603     20606     20607     20605     20603     20606     20608
     20605     20603     20606     20609     20606     20609     20612     20613
     20606     20609     20612     20614     20606     20609     20612     20615
     20607     20606     20609     20610     20607     20606     20609     20611
     20607     20606     20609     20612     20608     20606     20609     20610
     20608     20606     20609     20611     20608     20606     20609     20612
     20609     20612     20615     20616     20609     20612     20615     20617
     20609     20612     20615     20618     20610     20609     20612     20613
     20610     20609     20612     20614     20610     20609     20612     20615
     20611     20609     20612     20613     20611     20609     20612     20614
     20611     20609     20612     20615     20612     20615     20618     20619
     20612     20615     20618     20620     20612     20615     20618     20621
     20613     20612     20615     20616     20613     20612     20615     20617
     20613     20612     20615     20618     20614     20612     20615     20616
     20614     20612     20615     20617     20614     20612     20615     20618
     20615     20618     20621     20622     20615     20618     20621     20623
     20615     20618     20621     20624     20616     20615     20618     20619
     20616     20615     20618     20620     20616     20615     20618     20621
     20617     20615     20618     20619     20617     20615     20618     20620
     20617     20615     20618     20621     20618     20621     20624     20625
     20618     20621     20624     20626     20618     20621     20624     20627
     20619     20618     20621     20622     20619     20618     20621     20623
     20619     20618     20621     20624     20620     20618     20621     20622
     20620     20618     20621     20623     20620     20618     20621     20624
     20621     20624     20627     20628     20621     20624     20627     20629
     20621     20624     20627     20630     20622     20621     20624     20625
     20622     20621     20624     20626     20622     20621     20624     20627
     20623     20621     20624     20625     20623     20621     20624     20626
     20623     20621     20624     20627     20624     20627     20630     20631
     20624     20627     20630     20632     20624     20627     20630     20633
     20625     20624     20627     20628     20625     20624     20627     20629
     20625     20624     20627     20630     20626     20624     20627     20628
     20626     20624     20627     20629     20626     20624     20627     20630
     20627     20630     20633     20634     20627     20630     20633     20635
     20627     20630     20633     20636     20628     20627     20630     20631
     20628     20627     20630     20632     20628     20627     20630     20633
     20629     20627     20630     20631     20629     20627     20630     20632
     20629     20627     20630     20633     20630     20633     20636     20637
     20630     20633     20636     20638     20630     20633     20636     20639
     20631     20630     20633     20634     20631     20630     20633     20635
     20631     20630     20633     20636     20632     20630     20633     20634
     20632     20630     20633     20635     20632     20630     20633     20636
     20634     20633     20636     20637     20634     20633     20636     20638
     20634     20633     20636     20639     20635     20633     20636     20637
     20635     20633     20636     20638     20635     20633     20636     20639
     20640     20653     20656     20657     20640     20653     20656     20658
     20640     20653     20656     20662     20641     20640     20645     20646
     20641     20640     20645     20647     20641     20640     20645     20648
     20641     20640     20649     20650     20641     20640     20649     20651
     20641     20640     20649     20652     20641     20640     20653     20654
     20641     20640     20653     20655     20641     20640     20653     20656
     20642     20641     20640     20645     20642     20641     20640     20649
     20642     20641     20640     20653     20643     20641     20640     20645
     20643     20641     20640     20649     20643     20641     20640     20653
     20644     20641     20640     20645     20644     20641     20640     20649
     20644     20641     20640     20653     20645     20640     20649     20650
     20645     20640     20649     20651     20645     20640     20649     20652
     20645     20640     20653     20654     20645     20640     20653     20655
     20645     20640     20653     20656     20646     20645     20640     20649
     20646     20645     20640     20653     20647     20645     20640     20649
     20647     20645     20640     20653     20648     20645     20640     20649
     20648     20645     20640     20653     20649     20640     20653     20654
     20649     20640     20653     20655     20649     20640     20653     20656
     20650     20649     20640     20653     20651     20649     20640     20653
     20652     20649     20640     20653     20653     20656     20662     20659
     20654     20653     20656     20657     20654     20653     20656     20658
     20654     20653     20656     20662     20655     20653     20656     20657
     20655     20653     20656     20658     20655     20653     20656     20662
     20656     20662     20659     20660     20656     20662     20659     20661
     20656     20662     20659     20663     20657     20656     20662     20659
     20658     20656     20662     20659     20659     20663     20664     20665
     20659     20663     20664     20666     20659     20663     20664     20667
     20660     20659     20663     20664     20661     20659     20663     20664
     20662     20659     20663     20664     20663     20664     20667     20668
     20663     20664     20667     20669     20663     20664     20667     20675
     20664     20667     20669     20670     20664     20667     20675     20676
     20664     20667     20675     20677     20664     20667     20675     20678
     20665     20664     20667     20668     20665     20664     20667     20669
     20665     20664     20667     20675     20666     20664     20667     20668
     20666     20664     20667     20669     20666     20664     20667     20675
     20667     20669     20670     20671     20667     20669     20670     20672
     20667     20675     20678     20679     20668     20667     20669     20670
     20668     20667     20675     20676     20668     20667     20675     20677
     20668     20667     20675     20678     20669     20667     20675     20676
     20669     20667     20675     20677     20669     20667     20675     20678
     20669     20670     20672     20673     20669     20670     20672     20674
     20669     20670     20672     20684     20670     20669     20667     20675
     20670     20672     20684     20685     20670     20672     20684     20686
     20670     20672     20684     20687     20671     20670     20672     20673
     20671     20670     20672     20674     20671     20670     20672     20684
     20672     20684     20687     20688     20672     20684     20687     20689
     20672     20684     20687     20690     20673     20672     20684     20685
     20673     20672     20684     20686     20673     20672     20684     20687
     20674     20672     20684     20685     20674     20672     20684     20686
     20674     20672     20684     20687     20675     20678     20679     20680
     20675     20678     20679     20681     20676     20675     20678     20679
     20677     20675     20678     20679     20678     20679     20681     20682
     20678     20679     20681     20683     20678     20679     20681     20729
     20679     20681     20729     20730     20679     20681     20729     20731
     20679     20681     20729     20732     20680     20679     20681     20682
     20680     20679     20681     20683     20680     20679     20681     20729
     20681     20729     20732     20733     20681     20729     20732     20734
     20681     20729     20732     20735     20682     20681     20729     20730
     20682     20681     20729     20731     20682     20681     20729     20732
     20683     20681     20729     20730     20683     20681     20729     20731
     20683     20681     20729     20732     20684     20687     20690     20691
     20684     20687     20690     20692     20684     20687     20690     20693
     20685     20684     20687     20688     20685     20684     20687     20689
     20685     20684     20687     20690     20686     20684     20687     20688
     20686     20684     20687     20689     20686     20684     20687     20690
     20687     20690     20693     20694     20687     20690     20693     20695
     20687     20690     20693     20696     20688     20687     20690     20691
     20688     20687     20690     20692     20688     20687     20690     20693
     20689     20687     20690     20691     20689     20687     20690     20692
     20689     20687     20690     20693     20690     20693     20696     20697
     20690     20693     20696     20698     20690     20693     20696     20699
     20691     20690     20693     20694     20691     20690     20693     20695
     20691     20690     20693     20696     20692     20690     20693     20694
     20692     20690     20693     20695     20692     20690     20693     20696
     20693     20696     20699     20700     20693     20696     20699     20701
     20693     20696     20699     20702     20694     20693     20696     20697
     20694     20693     20696     20698     20694     20693     20696     20699
     20695     20693     20696     20697     20695     20693     20696     20698
     20695     20693     20696     20699     20696     20699     20702     20703
     20696     20699     20702     20704     20697     20696     20699     20700
     20697     20696     20699     20701     20697     20696     20699     20702
     20698     20696     20699     20700     20698     20696     20699     20701
     20698     20696     20699     20702     20699     20702     20704     20705
     20699     20702     20704     20706     20700     20699     20702     20703
     20700     20699     20702     20704     20701     20699     20702     20703
     20701     20699     20702     20704     20702     20704     20706     20707
     20702     20704     20706     20708     20702     20704     20706     20709
     20703     20702     20704     20705     20703     20702     20704     20706
     20704     20706     20709     20710     20704     20706     20709     20711
     20705     20704     20706     20707     20705     20704     20706     20708
     20705     20704     20706     20709     20706     20709     20711     20712
     20706     20709     20711     20713     20707     20706     20709     20710
     20707     20706     20709     20711     20708     20706     20709     20710
     20708     20706     20709     20711     20709     20711     20713     20714
     20709     20711     20713     20715     20709     20711     20713     20716
     20710     20709     20711     20712     20710     20709     20711     20713
     20711     20713     20716     20717     20711     20713     20716     20718
     20711     20713     20716     20719     20712     20711     20713     20714
     20712     20711     20713     20715     20712     20711     20713     20716
     20713     20716     20719     20720     20713     20716     20719     20721
     20713     20716     20719     20722     20714     20713     20716     20717
     20714     20713     20716     20718     20714     20713     20716     20719
     20715     20713     20716     20717     20715     20713     20716     20718
     20715     20713     20716     20719     20716     20719     20722     20723
     20716     20719     20722     20724     20716     20719     20722     20725
     20717     20716     20719     20720     20717     20716     20719     20721
     20717     20716     20719     20722     20718     20716     20719     20720
     20718     20716     20719     20721     20718     20716     20719     20722
     20719     20722     20725     20726     20719     20722     20725     20727
     20719     20722     20725     20728     20720     20719     20722     20723
     20720     20719     20722     20724     20720     20719     20722     20725
     20721     20719     20722     20723     20721     20719     20722     20724
     20721     20719     20722     20725     20723     20722     20725     20726
     20723     20722     20725     20727     20723     20722     20725     20728
     20724     20722     20725     20726     20724     20722     20725     20727
     20724     20722     20725     20728     20729     20732     20735     20736
     20729     20732     20735     20737     20729     20732     20735     20738
     20730     20729     20732     20733     20730     20729     20732     20734
     20730     20729     20732     20735     20731     20729     20732     20733
     20731     20729     20732     20734     20731     20729     20732     20735
     20732     20735     20738     20739     20732     20735     20738     20740
     20732     20735     20738     20741     20733     20732     20735     20736
     20733     20732     20735     20737     20733     20732     20735     20738
     20734     20732     20735     20736     20734     20732     20735     20737
     20734     20732     20735     20738     20735     20738     20741     20742
     20735     20738     20741     20743     20735     20738     20741     20744
     20736     20735     20738     20739     20736     20735     20738     20740
     20736     20735     20738     20741     20737     20735     20738     20739
     20737     20735     20738     20740     20737     20735     20738     20741
     20738     20741     20744     20745     20738     20741     20744     20746
     20738     20741     20744     20747     20739     20738     20741     20742
     20739     20738     20741     20743     20739     20738     20741     20744
     20740     20738     20741     20742     20740     20738     20741     20743
     20740     20738     20741     20744     20741     20744     20747     20748
     20741     20744     20747     20749     20741     20744     20747     20750
     20742     20741     20744     20745     20742     20741     20744     20746
     20742     20741     20744     20747     20743     20741     20744     20745
     20743     20741     20744     20746     20743     20741     20744     20747
     20744     20747     20750     20751     20744     20747     20750     20752
     20744     20747     20750     20753     20745     20744     20747     20748
     20745     20744     20747     20749     20745     20744     20747     20750
     20746     20744     20747     20748     20746     20744     20747     20749
     20746     20744     20747     20750     20747     20750     20753     20754
     20747     20750     20753     20755     20747     20750     20753     20756
     20748     20747     20750     20751     20748     20747     20750     20752
     20748     20747     20750     20753     20749     20747     20750     20751
     20749     20747     20750     20752     20749     20747     20750     20753
     20750     20753     20756     20757     20750     20753     20756     20758
     20750     20753     20756     20759     20751     20750     20753     20754
     20751     20750     20753     20755     20751     20750     20753     20756
     20752     20750     20753     20754     20752     20750     20753     20755
     20752     20750     20753     20756     20753     20756     20759     20760
     20753     20756     20759     20761     20753     20756     20759     20762
     20754     20753     20756     20757     20754     20753     20756     20758
     20754     20753     20756     20759     20755     20753     20756     20757
     20755     20753     20756     20758     20755     20753     20756     20759
     20756     20759     20762     20763     20756     20759     20762     20764
     20756     20759     20762     20765     20757     20756     20759     20760
     20757     20756     20759     20761     20757     20756     20759     20762
     20758     20756     20759     20760     20758     20756     20759     20761
     20758     20756     20759     20762     20759     20762     20765     20766
     20759     20762     20765     20767     20759     20762     20765     20768
     20760     20759     20762     20763     20760     20759     20762     20764
     20760     20759     20762     20765     20761     20759     20762     20763
     20761     20759     20762     20764     20761     20759     20762     20765
     20762     20765     20768     20769     20762     20765     20768     20770
     20762     20765     20768     20771     20763     20762     20765     20766
     20763     20762     20765     20767     20763     20762     20765     20768
     20764     20762     20765     20766     20764     20762     20765     20767
     20764     20762     20765     20768     20765     20768     20771     20772
     20765     20768     20771     20773     20765     20768     20771     20774
     20766     20765     20768     20769     20766     20765     20768     20770
     20766     20765     20768     20771     20767     20765     20768     20769
     20767     20765     20768     20770     20767     20765     20768     20771
     20768     20771     20774     20775     20768     20771     20774     20776
     20768     20771     20774     20777     20769     20768     20771     20772
     20769     20768     20771     20773     20769     20768     20771     20774
     20770     20768     20771     20772     20770     20768     20771     20773
     20770     20768     20771     20774     20772     20771     20774     20775
     20772     20771     20774     20776     20772     20771     20774     20777
     20773     20771     20774     20775     20773     20771     20774     20776
     20773     20771     20774     20777     20778     20782     20785     20786
     20778     20782     20785     20816     20778     20824     20821     20816
     20778     20824     20821     20822     20778     20824     20821     20823
     20779     20778     20780     20781     20779     20778     20782     20783
     20779     20778     20782     20784     20779     20778     20782     20785
     20779     20778     20824     20821     20779     20778     20824     20825
     20779     20778     20824     20826     20780     20778     20782     20783
     20780     20778     20782     20784     20780     20778     20782     20785
     20780     20778     20824     20821     20780     20778     20824     20825
     20780     20778     20824     20826     20781     20780     20778     20782
     20781     20780     20778     20824     20782     20778     20824     20821
     20782     20778     20824     20825     20782     20778     20824     20826
     20782     20785     20786     20787     20782     20785     20786     20788
     20782     20785     20816     20814     20782     20785     20816     20817
     20782     20785     20816     20821     20783     20782     20778     20824
     20783     20782     20785     20786     20783     20782     20785     20816
     20784     20782     20778     20824     20784     20782     20785     20786
     20784     20782     20785     20816     20785     20782     20778     20824
     20785     20786     20788     20789     20785     20786     20788     20790
     20785     20786     20788     20791     20785     20816     20814     20791
     20785     20816     20814     20811     20785     20816     20814     20815
     20785     20816     20817     20818     20785     20816     20817     20819
     20785     20816     20817     20820     20785     20816     20821     20822
     20785     20816     20821     20823     20785     20816     20821     20824
     20786     20785     20816     20814     20786     20785     20816     20817
     20786     20785     20816     20821     20786     20788     20791     20792
     20786     20788     20791     20793     20786     20788     20791     20814
     20787     20786     20785     20816     20787     20786     20788     20789
     20787     20786     20788     20790     20787     20786     20788     20791
     20788     20786     20785     20816     20788     20791     20793     20794
     20788     20791     20793     20795     20788     20791     20793     20803
     20788     20791     20814     20811     20788     20791     20814     20815
     20788     20791     20814     20816     20789     20788     20791     20792
     20789     20788     20791     20793     20789     20788     20791     20814
     20790     20788     20791     20792     20790     20788     20791     20793
     20790     20788     20791     20814     20791     20793     20795     20796
     20791     20793     20795     20797     20791     20793     20795     20798
     20791     20793     20803     20801     20791     20793     20803     20804
     20791     20793     20803     20808     20791     20814     20811     20808
     20791     20814     20811     20812     20791     20814     20811     20813
     20791     20814     20816     20817     20791     20814     20816     20821
     20792     20791     20793     20794     20792     20791     20793     20795
     20792     20791     20793     20803     20792     20791     20814     20811
     20792     20791     20814     20815     20792     20791     20814     20816
     20793     20791     20814     20811     20793     20791     20814     20815
     20793     20791     20814     20816     20793     20795     20798     20799
     20793     20795     20798     20800     20793     20795     20798     20801
     20793     20803     20801     20798     20793     20803     20801     20802
     20793     20803     20801     20827     20793     20803     20804     20805
     20793     20803     20804     20806     20793     20803     20804     20807
     20793     20803     20808     20809     20793     20803     20808     20810
     20793     20803     20808     20811     20794     20793     20791     20814
     20794     20793     20795     20796     20794     20793     20795     20797
     20794     20793     20795     20798     20794     20793     20803     20801
     20794     20793     20803     20804     20794     20793     20803     20808
     20795     20793     20791     20814     20795     20793     20803     20801
     20795     20793     20803     20804     20795     20793     20803     20808
     20795     20798     20801     20802     20795     20798     20801     20803
     20795     20798     20801     20827     20796     20795     20793     20803
     20796     20795     20798     20799     20796     20795     20798     20800
     20796     20795     20798     20801     20797     20795     20793     20803
     20797     20795     20798     20799     20797     20795     20798     20800
     20797     20795     20798     20801     20798     20795     20793     20803
     20798     20801     20803     20804     20798     20801     20803     20808
     20798     20801     20827     20828     20798     20801     20827     20829
     20798     20801     20827     20833     20799     20798     20801     20802
     20799     20798     20801     20803     20799     20798     20801     20827
     20800     20798     20801     20802     20800     20798     20801     20803
     20800     20798     20801     20827     20801     20803     20804     20805
     20801     20803     20804     20806     20801     20803     20804     20807
     20801     20803     20808     20809     20801     20803     20808     20810
     20801     20803     20808     20811     20801     20827     20829     20830
     20801     20827     20829     20831     20801     20827     20829     20832
     20801     20827     20833     20834     20801     20827     20833     20835
     20801     20827     20833     20836     20802     20801     20803     20804
     20802     20801     20803     20808     20802     20801     20827     20828
     20802     20801     20827     20829     20802     20801     20827     20833
     20803     20793     20791     20814     20803     20801     20827     20828
     20803     20801     20827     20829     20803     20801     20827     20833
     20803     20808     20811     20812     20803     20808     20811     20813
     20803     20808     20811     20814     20804     20803     20801     20827
     20804     20803     20808     20809     20804     20803     20808     20810
     20804     20803     20808     20811     20805     20804     20803     20808
     20806     20804     20803     20808     20807     20804     20803     20808
     20808     20803     20801     20827     20808     20811     20814     20815
     20808     20811     20814     20816     20809     20808     20811     20812
     20809     20808     20811     20813     20809     20808     20811     20814
     20810     20808     20811     20812     20810     20808     20811     20813
     20810     20808     20811     20814     20811     20814     20816     20817
     20811     20814     20816     20821     20812     20811     20814     20815
     20812     20811     20814     20816     20813     20811     20814     20815
     20813     20811     20814     20816     20814     20816     20817     20818
     20814     20816     20817     20819     20814     20816     20817     20820
     20814     20816     20821     20822     20814     20816     20821     20823
     20814     20816     20821     20824     20815     20814     20816     20817
     20815     20814     20816     20821     20816     20821     20824     20825
     20816     20821     20824     20826     20817     20816     20821     20822
     20817     20816     20821     20823     20817     20816     20821     20824
     20818     20817     20816     20821     20819     20817     20816     20821
     20820     20817     20816     20821     20822     20821     20824     20825
     20822     20821     20824     20826     20823     20821     20824     20825
     20823     20821     20824     20826     20827     20833     20836     20837
     20827     20833     20836     20838     20827     20833     20836     20839
     20828     20827     20829     20830     20828     20827     20829     20831
     20828     20827     20829     20832     20828     20827     20833     20834
     20828     20827     20833     20835     20828     20827     20833     20836
     20829     20827     20833     20834     20829     20827     20833     20835
     20829     20827     20833     20836     20830     20829     20827     20833
     20831     20829     20827     20833     20832     20829     20827     20833
     20833     20836     20839     20840     20833     20836     20839     20841
     20833     20836     20839     20842     20834     20833     20836     20837
     20834     20833     20836     20838     20834     20833     20836     20839
     20835     20833     20836     20837     20835     20833     20836     20838
     20835     20833     20836     20839     20836     20839     20842     20843
     20836     20839     20842     20844     20836     20839     20842     20848
     20837     20836     20839     20840     20837     20836     20839     20841
     20837     20836     20839     20842     20838     20836     20839     20840
     20838     20836     20839     20841     20838     20836     20839     20842
     20839     20842     20844     20845     20839     20842     20844     20846
     20839     20842     20844     20847     20839     20842     20848     20849
     20839     20842     20848     20850     20839     20842     20848     20851
     20840     20839     20842     20843     20840     20839     20842     20844
     20840     20839     20842     20848     20841     20839     20842     20843
     20841     20839     20842     20844     20841     20839     20842     20848
     20843     20842     20844     20845     20843     20842     20844     20846
     20843     20842     20844     20847     20843     20842     20848     20849
     20843     20842     20848     20850     20843     20842     20848     20851
     20844     20842     20848     20849     20844     20842     20848     20850
     20844     20842     20848     20851     20845     20844     20842     20848
     20846     20844     20842     20848     20847     20844     20842     20848
     20852     20856     20859     20860     20852     20856     20859     20861
     20852     20856     20859     20865     20853     20852     20856     20857
     20853     20852     20856     20858     20853     20852     20856     20859
     20854     20852     20856     20857     20854     20852     20856     20858
     20854     20852     20856     20859     20855     20852     20856     20857
     20855     20852     20856     20858     20855     20852     20856     20859
     20856     20859     20865     20862     20857     20856     20859     20860
     20857     20856     20859     20861     20857     20856     20859     20865
     20858     20856     20859     20860     20858     20856     20859     20861
     20858     20856     20859     20865     20859     20865     20862     20863
     20859     20865     20862     20864     20859     20865     20862     20866
     20860     20859     20865     20862     20861     20859     20865     20862
     20862     20866     20867     20868     20862     20866     20867     20869
     20862     20866     20867     20870     20863     20862     20866     20867
     20864     20862     20866     20867     20865     20862     20866     20867
     20866     20867     20870     20871     20866     20867     20870     20872
     20866     20867     20870     20878     20867     20870     20872     20873
     20867     20870     20878     20879     20867     20870     20878     20880
     20867     20870     20878     20881     20868     20867     20870     20871
     20868     20867     20870     20872     20868     20867     20870     20878
     20869     20867     20870     20871     20869     20867     20870     20872
     20869     20867     20870     20878     20870     20872     20873     20874
     20870     20872     20873     20875     20870     20878     20881     20882
     20871     20870     20872     20873     20871     20870     20878     20879
     20871     20870     20878     20880     20871     20870     20878     20881
     20872     20870     20878     20879     20872     20870     20878     20880
     20872     20870     20878     20881     20872     20873     20875     20876
     20872     20873     20875     20877     20872     20873     20875     20887
     20873     20872     20870     20878     20873     20875     20887     20888
     20873     20875     20887     20889     20873     20875     20887     20890
     20874     20873     20875     20876     20874     20873     20875     20877
     20874     20873     20875     20887     20875     20887     20890     20891
     20875     20887     20890     20892     20875     20887     20890     20893
     20876     20875     20887     20888     20876     20875     20887     20889
     20876     20875     20887     20890     20877     20875     20887     20888
     20877     20875     20887     20889     20877     20875     20887     20890
     20878     20881     20882     20883     20878     20881     20882     20884
     20879     20878     20881     20882     20880     20878     20881     20882
     20881     20882     20884     20885     20881     20882     20884     20886
     20881     20882     20884     20934     20882     20884     20934     20935
     20882     20884     20934     20936     20882     20884     20934     20937
     20883     20882     20884     20885     20883     20882     20884     20886
     20883     20882     20884     20934     20884     20934     20937     20938
     20884     20934     20937     20939     20884     20934     20937     20940
     20885     20884     20934     20935     20885     20884     20934     20936
     20885     20884     20934     20937     20886     20884     20934     20935
     20886     20884     20934     20936     20886     20884     20934     20937
     20887     20890     20893     20894     20887     20890     20893     20895
     20888     20887     20890     20891     20888     20887     20890     20892
     20888     20887     20890     20893     20889     20887     20890     20891
     20889     20887     20890     20892     20889     20887     20890     20893
     20890     20893     20895     20896     20890     20893     20895     20897
     20891     20890     20893     20894     20891     20890     20893     20895
     20892     20890     20893     20894     20892     20890     20893     20895
     20893     20895     20897     20898     20893     20895     20897     20899
     20893     20895     20897     20900     20894     20893     20895     20896
     20894     20893     20895     20897     20895     20897     20900     20901
     20895     20897     20900     20902     20896     20895     20897     20898
     20896     20895     20897     20899     20896     20895     20897     20900
     20897     20900     20902     20903     20897     20900     20902     20904
     20898     20897     20900     20901     20898     20897     20900     20902
     20899     20897     20900     20901     20899     20897     20900     20902
     20900     20902     20904     20905     20900     20902     20904     20906
     20900     20902     20904     20907     20901     20900     20902     20903
     20901     20900     20902     20904     20902     20904     20907     20908
     20902     20904     20907     20909     20903     20902     20904     20905
     20903     20902     20904     20906     20903     20902     20904     20907
     20904     20907     20909     20910     20904     20907     20909     20911
     20905     20904     20907     20908     20905     20904     20907     20909
     20906     20904     20907     20908     20906     20904     20907     20909
     20907     20909     20911     20912     20907     20909     20911     20913
     20907     20909     20911     20914     20908     20907     20909     20910
     20908     20907     20909     20911     20909     20911     20914     20915
     20909     20911     20914     20916     20910     20909     20911     20912
     20910     20909     20911     20913     20910     20909     20911     20914
     20911     20914     20916     20917     20911     20914     20916     20918
     20912     20911     20914     20915     20912     20911     20914     20916
     20913     20911     20914     20915     20913     20911     20914     20916
     20914     20916     20918     20919     20914     20916     20918     20920
     20914     20916     20918     20921     20915     20914     20916     20917
     20915     20914     20916     20918     20916     20918     20921     20922
     20916     20918     20921     20923     20916     20918     20921     20924
     20917     20916     20918     20919     20917     20916     20918     20920
     20917     20916     20918     20921     20918     20921     20924     20925
     20918     20921     20924     20926     20918     20921     20924     20927
     20919     20918     20921     20922     20919     20918     20921     20923
     20919     20918     20921     20924     20920     20918     20921     20922
     20920     20918     20921     20923     20920     20918     20921     20924
     20921     20924     20927     20928     20921     20924     20927     20929
     20921     20924     20927     20930     20922     20921     20924     20925
     20922     20921     20924     20926     20922     20921     20924     20927
     20923     20921     20924     20925     20923     20921     20924     20926
     20923     20921     20924     20927     20924     20927     20930     20931
     20924     20927     20930     20932     20924     20927     20930     20933
     20925     20924     20927     20928     20925     20924     20927     20929
     20925     20924     20927     20930     20926     20924     20927     20928
     20926     20924     20927     20929     20926     20924     20927     20930
     20928     20927     20930     20931     20928     20927     20930     20932
     20928     20927     20930     20933     20929     20927     20930     20931
     20929     20927     20930     20932     20929     20927     20930     20933
     20934     20937     20940     20941     20934     20937     20940     20942
     20934     20937     20940     20943     20935     20934     20937     20938
     20935     20934     20937     20939     20935     20934     20937     20940
     20936     20934     20937     20938     20936     20934     20937     20939
     20936     20934     20937     20940     20937     20940     20943     20944
     20937     20940     20943     20945     20937     20940     20943     20946
     20938     20937     20940     20941     20938     20937     20940     20942
     20938     20937     20940     20943     20939     20937     20940     20941
     20939     20937     20940     20942     20939     20937     20940     20943
     20940     20943     20946     20947     20940     20943     20946     20948
     20940     20943     20946     20949     20941     20940     20943     20944
     20941     20940     20943     20945     20941     20940     20943     20946
     20942     20940     20943     20944     20942     20940     20943     20945
     20942     20940     20943     20946     20943     20946     20949     20950
     20943     20946     20949     20951     20943     20946     20949     20952
     20944     20943     20946     20947     20944     20943     20946     20948
     20944     20943     20946     20949     20945     20943     20946     20947
     20945     20943     20946     20948     20945     20943     20946     20949
     20946     20949     20952     20953     20946     20949     20952     20954
     20946     20949     20952     20955     20947     20946     20949     20950
     20947     20946     20949     20951     20947     20946     20949     20952
     20948     20946     20949     20950     20948     20946     20949     20951
     20948     20946     20949     20952     20949     20952     20955     20956
     20949     20952     20955     20957     20949     20952     20955     20958
     20950     20949     20952     20953     20950     20949     20952     20954
     20950     20949     20952     20955     20951     20949     20952     20953
     20951     20949     20952     20954     20951     20949     20952     20955
     20952     20955     20958     20959     20952     20955     20958     20960
     20952     20955     20958     20961     20953     20952     20955     20956
     20953     20952     20955     20957     20953     20952     20955     20958
     20954     20952     20955     20956     20954     20952     20955     20957
     20954     20952     20955     20958     20955     20958     20961     20962
     20955     20958     20961     20963     20955     20958     20961     20964
     20956     20955     20958     20959     20956     20955     20958     20960
     20956     20955     20958     20961     20957     20955     20958     20959
     20957     20955     20958     20960     20957     20955     20958     20961
     20958     20961     20964     20965     20958     20961     20964     20966
     20958     20961     20964     20967     20959     20958     20961     20962
     20959     20958     20961     20963     20959     20958     20961     20964
     20960     20958     20961     20962     20960     20958     20961     20963
     20960     20958     20961     20964     20961     20964     20967     20968
     20961     20964     20967     20969     20961     20964     20967     20970
     20962     20961     20964     20965     20962     20961     20964     20966
     20962     20961     20964     20967     20963     20961     20964     20965
     20963     20961     20964     20966     20963     20961     20964     20967
     20964     20967     20970     20971     20964     20967     20970     20972
     20964     20967     20970     20973     20965     20964     20967     20968
     20965     20964     20967     20969     20965     20964     20967     20970
     20966     20964     20967     20968     20966     20964     20967     20969
     20966     20964     20967     20970     20967     20970     20973     20974
     20967     20970     20973     20975     20967     20970     20973     20976
     20968     20967     20970     20971     20968     20967     20970     20972
     20968     20967     20970     20973     20969     20967     20970     20971
     20969     20967     20970     20972     20969     20967     20970     20973
     20970     20973     20976     20977     20970     20973     20976     20978
     20970     20973     20976     20979     20971     20970     20973     20974
     20971     20970     20973     20975     20971     20970     20973     20976
     20972     20970     20973     20974     20972     20970     20973     20975
     20972     20970     20973     20976     20973     20976     20979     20980
     20973     20976     20979     20981     20973     20976     20979     20982
     20974     20973     20976     20977     20974     20973     20976     20978
     20974     20973     20976     20979     20975     20973     20976     20977
     20975     20973     20976     20978     20975     20973     20976     20979
     20977     20976     20979     20980     20977     20976     20979     20981
     20977     20976     20979     20982     20978     20976     20979     20980
     20978     20976     20979     20981     20978     20976     20979     20982
     20983     20987     20990     20991     20983     20987     20990     20992
     20983     20987     20990     20996     20984     20983     20987     20988
     20984     20983     20987     20989     20984     20983     20987     20990
     20985     20983     20987     20988     20985     20983     20987     20989
     20985     20983     20987     20990     20986     20983     20987     20988
     20986     20983     20987     20989     20986     20983     20987     20990
     20987     20990     20996     20993     20988     20987     20990     20991
     20988     20987     20990     20992     20988     20987     20990     20996
     20989     20987     20990     20991     20989     20987     20990     20992
     20989     20987     20990     20996     20990     20996     20993     20994
     20990     20996     20993     20995     20990     20996     20993     20997
     20991     20990     20996     20993     20992     20990     20996     20993
     20993     20997     20998     20999     20993     20997     20998     21000
     20993     20997     20998     21001     20994     20993     20997     20998
     20995     20993     20997     20998     20996     20993     20997     20998
     20997     20998     21001     21002     20997     20998     21001     21003
     20997     20998     21001     21009     20998     21001     21003     21004
     20998     21001     21009     21010     20998     21001     21009     21011
     20998     21001     21009     21012     20999     20998     21001     21002
     20999     20998     21001     21003     20999     20998     21001     21009
     21000     20998     21001     21002     21000     20998     21001     21003
     21000     20998     21001     21009     21001     21003     21004     21005
     21001     21003     21004     21006     21001     21009     21012     21013
     21002     21001     21003     21004     21002     21001     21009     21010
     21002     21001     21009     21011     21002     21001     21009     21012
     21003     21001     21009     21010     21003     21001     21009     21011
     21003     21001     21009     21012     21003     21004     21006     21007
     21003     21004     21006     21008     21003     21004     21006     21018
     21004     21003     21001     21009     21004     21006     21018     21019
     21004     21006     21018     21020     21004     21006     21018     21021
     21005     21004     21006     21007     21005     21004     21006     21008
     21005     21004     21006     21018     21006     21018     21021     21022
     21006     21018     21021     21023     21006     21018     21021     21024
     21007     21006     21018     21019     21007     21006     21018     21020
     21007     21006     21018     21021     21008     21006     21018     21019
     21008     21006     21018     21020     21008     21006     21018     21021
     21009     21012     21013     21014     21009     21012     21013     21015
     21010     21009     21012     21013     21011     21009     21012     21013
     21012     21013     21015     21016     21012     21013     21015     21017
     21012     21013     21015     21065     21013     21015     21065     21066
     21013     21015     21065     21067     21013     21015     21065     21068
     21014     21013     21015     21016     21014     21013     21015     21017
     21014     21013     21015     21065     21015     21065     21068     21069
     21015     21065     21068     21070     21015     21065     21068     21071
     21016     21015     21065     21066     21016     21015     21065     21067
     21016     21015     21065     21068     21017     21015     21065     21066
     21017     21015     21065     21067     21017     21015     21065     21068
     21018     21021     21024     21025     21018     21021     21024     21026
     21019     21018     21021     21022     21019     21018     21021     21023
     21019     21018     21021     21024     21020     21018     21021     21022
     21020     21018     21021     21023     21020     21018     21021     21024
     21021     21024     21026     21027     21021     21024     21026     21028
     21022     21021     21024     21025     21022     21021     21024     21026
     21023     21021     21024     21025     21023     21021     21024     21026
     21024     21026     21028     21029     21024     21026     21028     21030
     21024     21026     21028     21031     21025     21024     21026     21027
     21025     21024     21026     21028     21026     21028     21031     21032
     21026     21028     21031     21033     21027     21026     21028     21029
     21027     21026     21028     21030     21027     21026     21028     21031
     21028     21031     21033     21034     21028     21031     21033     21035
     21029     21028     21031     21032     21029     21028     21031     21033
     21030     21028     21031     21032     21030     21028     21031     21033
     21031     21033     21035     21036     21031     21033     21035     21037
     21031     21033     21035     21038     21032     21031     21033     21034
     21032     21031     21033     21035     21033     21035     21038     21039
     21033     21035     21038     21040     21034     21033     21035     21036
     21034     21033     21035     21037     21034     21033     21035     21038
     21035     21038     21040     21041     21035     21038     21040     21042
     21036     21035     21038     21039     21036     21035     21038     21040
     21037     21035     21038     21039     21037     21035     21038     21040
     21038     21040     21042     21043     21038     21040     21042     21044
     21038     21040     21042     21045     21039     21038     21040     21041
     21039     21038     21040     21042     21040     21042     21045     21046
     21040     21042     21045     21047     21041     21040     21042     21043
     21041     21040     21042     21044     21041     21040     21042     21045
     21042     21045     21047     21048     21042     21045     21047     21049
     21043     21042     21045     21046     21043     21042     21045     21047
     21044     21042     21045     21046     21044     21042     21045     21047
     21045     21047     21049     21050     21045     21047     21049     21051
     21045     21047     21049     21052     21046     21045     21047     21048
     21046     21045     21047     21049     21047     21049     21052     21053
     21047     21049     21052     21054     21047     21049     21052     21055
     21048     21047     21049     21050     21048     21047     21049     21051
     21048     21047     21049     21052     21049     21052     21055     21056
     21049     21052     21055     21057     21049     21052     21055     21058
     21050     21049     21052     21053     21050     21049     21052     21054
     21050     21049     21052     21055     21051     21049     21052     21053
     21051     21049     21052     21054     21051     21049     21052     21055
     21052     21055     21058     21059     21052     21055     21058     21060
     21052     21055     21058     21061     21053     21052     21055     21056
     21053     21052     21055     21057     21053     21052     21055     21058
     21054     21052     21055     21056     21054     21052     21055     21057
     21054     21052     21055     21058     21055     21058     21061     21062
     21055     21058     21061     21063     21055     21058     21061     21064
     21056     21055     21058     21059     21056     21055     21058     21060
     21056     21055     21058     21061     21057     21055     21058     21059
     21057     21055     21058     21060     21057     21055     21058     21061
     21059     21058     21061     21062     21059     21058     21061     21063
     21059     21058     21061     21064     21060     21058     21061     21062
     21060     21058     21061     21063     21060     21058     21061     21064
     21065     21068     21071     21072     21065     21068     21071     21073
     21065     21068     21071     21074     21066     21065     21068     21069
     21066     21065     21068     21070     21066     21065     21068     21071
     21067     21065     21068     21069     21067     21065     21068     21070
     21067     21065     21068     21071     21068     21071     21074     21075
     21068     21071     21074     21076     21068     21071     21074     21077
     21069     21068     21071     21072     21069     21068     21071     21073
     21069     21068     21071     21074     21070     21068     21071     21072
     21070     21068     21071     21073     21070     21068     21071     21074
     21071     21074     21077     21078     21071     21074     21077     21079
     21071     21074     21077     21080     21072     21071     21074     21075
     21072     21071     21074     21076     21072     21071     21074     21077
     21073     21071     21074     21075     21073     21071     21074     21076
     21073     21071     21074     21077     21074     21077     21080     21081
     21074     21077     21080     21082     21074     21077     21080     21083
     21075     21074     21077     21078     21075     21074     21077     21079
     21075     21074     21077     21080     21076     21074     21077     21078
     21076     21074     21077     21079     21076     21074     21077     21080
     21077     21080     21083     21084     21077     21080     21083     21085
     21077     21080     21083     21086     21078     21077     21080     21081
     21078     21077     21080     21082     21078     21077     21080     21083
     21079     21077     21080     21081     21079     21077     21080     21082
     21079     21077     21080     21083     21080     21083     21086     21087
     21080     21083     21086     21088     21080     21083     21086     21089
     21081     21080     21083     21084     21081     21080     21083     21085
     21081     21080     21083     21086     21082     21080     21083     21084
     21082     21080     21083     21085     21082     21080     21083     21086
     21083     21086     21089     21090     21083     21086     21089     21091
     21083     21086     21089     21092     21084     21083     21086     21087
     21084     21083     21086     21088     21084     21083     21086     21089
     21085     21083     21086     21087     21085     21083     21086     21088
     21085     21083     21086     21089     21086     21089     21092     21093
     21086     21089     21092     21094     21086     21089     21092     21095
     21087     21086     21089     21090     21087     21086     21089     21091
     21087     21086     21089     21092     21088     21086     21089     21090
     21088     21086     21089     21091     21088     21086     21089     21092
     21089     21092     21095     21096     21089     21092     21095     21097
     21089     21092     21095     21098     21090     21089     21092     21093
     21090     21089     21092     21094     21090     21089     21092     21095
     21091     21089     21092     21093     21091     21089     21092     21094
     21091     21089     21092     21095     21092     21095     21098     21099
     21092     21095     21098     21100     21092     21095     21098     21101
     21093     21092     21095     21096     21093     21092     21095     21097
     21093     21092     21095     21098     21094     21092     21095     21096
     21094     21092     21095     21097     21094     21092     21095     21098
     21095     21098     21101     21102     21095     21098     21101     21103
     21095     21098     21101     21104     21096     21095     21098     21099
     21096     21095     21098     21100     21096     21095     21098     21101
     21097     21095     21098     21099     21097     21095     21098     21100
     21097     21095     21098     21101     21098     21101     21104     21105
     21098     21101     21104     21106     21098     21101     21104     21107
     21099     21098     21101     21102     21099     21098     21101     21103
     21099     21098     21101     21104     21100     21098     21101     21102
     21100     21098     21101     21103     21100     21098     21101     21104
     21101     21104     21107     21108     21101     21104     21107     21109
     21101     21104     21107     21110     21102     21101     21104     21105
     21102     21101     21104     21106     21102     21101     21104     21107
     21103     21101     21104     21105     21103     21101     21104     21106
     21103     21101     21104     21107     21104     21107     21110     21111
     21104     21107     21110     21112     21104     21107     21110     21113
     21105     21104     21107     21108     21105     21104     21107     21109
     21105     21104     21107     21110     21106     21104     21107     21108
     21106     21104     21107     21109     21106     21104     21107     21110
     21108     21107     21110     21111     21108     21107     21110     21112
     21108     21107     21110     21113     21109     21107     21110     21111
     21109     21107     21110     21112     21109     21107     21110     21113
     21114     21118     21121     21122     21114     21118     21121     21152
     21114     21160     21157     21152     21114     21160     21157     21158
     21114     21160     21157     21159     21115     21114     21116     21117
     21115     21114     21118     21119     21115     21114     21118     21120
     21115     21114     21118     21121     21115     21114     21160     21157
     21115     21114     21160     21161     21115     21114     21160     21162
     21116     21114     21118     21119     21116     21114     21118     21120
     21116     21114     21118     21121     21116     21114     21160     21157
     21116     21114     21160     21161     21116     21114     21160     21162
     21117     21116     21114     21118     21117     21116     21114     21160
     21118     21114     21160     21157     21118     21114     21160     21161
     21118     21114     21160     21162     21118     21121     21122     21123
     21118     21121     21122     21124     21118     21121     21152     21150
     21118     21121     21152     21153     21118     21121     21152     21157
     21119     21118     21114     21160     21119     21118     21121     21122
     21119     21118     21121     21152     21120     21118     21114     21160
     21120     21118     21121     21122     21120     21118     21121     21152
     21121     21118     21114     21160     21121     21122     21124     21125
     21121     21122     21124     21126     21121     21122     21124     21127
     21121     21152     21150     21127     21121     21152     21150     21147
     21121     21152     21150     21151     21121     21152     21153     21154
     21121     21152     21153     21155     21121     21152     21153     21156
     21121     21152     21157     21158     21121     21152     21157     21159
     21121     21152     21157     21160     21122     21121     21152     21150
     21122     21121     21152     21153     21122     21121     21152     21157
     21122     21124     21127     21128     21122     21124     21127     21129
     21122     21124     21127     21150     21123     21122     21121     21152
     21123     21122     21124     21125     21123     21122     21124     21126
     21123     21122     21124     21127     21124     21122     21121     21152
     21124     21127     21129     21130     21124     21127     21129     21131
     21124     21127     21129     21139     21124     21127     21150     21147
     21124     21127     21150     21151     21124     21127     21150     21152
     21125     21124     21127     21128     21125     21124     21127     21129
     21125     21124     21127     21150     21126     21124     21127     21128
     21126     21124     21127     21129     21126     21124     21127     21150
     21127     21129     21131     21132     21127     21129     21131     21133
     21127     21129     21131     21134     21127     21129     21139     21137
     21127     21129     21139     21140     21127     21129     21139     21144
     21127     21150     21147     21144     21127     21150     21147     21148
     21127     21150     21147     21149     21127     21150     21152     21153
     21127     21150     21152     21157     21128     21127     21129     21130
     21128     21127     21129     21131     21128     21127     21129     21139
     21128     21127     21150     21147     21128     21127     21150     21151
     21128     21127     21150     21152     21129     21127     21150     21147
     21129     21127     21150     21151     21129     21127     21150     21152
     21129     21131     21134     21135     21129     21131     21134     21136
     21129     21131     21134     21137     21129     21139     21137     21134
     21129     21139     21137     21138     21129     21139     21137     21163
     21129     21139     21140     21141     21129     21139     21140     21142
     21129     21139     21140     21143     21129     21139     21144     21145
     21129     21139     21144     21146     21129     21139     21144     21147
     21130     21129     21127     21150     21130     21129     21131     21132
     21130     21129     21131     21133     21130     21129     21131     21134
     21130     21129     21139     21137     21130     21129     21139     21140
     21130     21129     21139     21144     21131     21129     21127     21150
     21131     21129     21139     21137     21131     21129     21139     21140
     21131     21129     21139     21144     21131     21134     21137     21138
     21131     21134     21137     21139     21131     21134     21137     21163
     21132     21131     21129     21139     21132     21131     21134     21135
     21132     21131     21134     21136     21132     21131     21134     21137
     21133     21131     21129     21139     21133     21131     21134     21135
     21133     21131     21134     21136     21133     21131     21134     21137
     21134     21131     21129     21139     21134     21137     21139     21140
     21134     21137     21139     21144     21134     21137     21163     21164
     21134     21137     21163     21165     21134     21137     21163     21169
     21135     21134     21137     21138     21135     21134     21137     21139
     21135     21134     21137     21163     21136     21134     21137     21138
     21136     21134     21137     21139     21136     21134     21137     21163
     21137     21139     21140     21141     21137     21139     21140     21142
     21137     21139     21140     21143     21137     21139     21144     21145
     21137     21139     21144     21146     21137     21139     21144     21147
     21137     21163     21165     21166     21137     21163     21165     21167
     21137     21163     21165     21168     21137     21163     21169     21170
     21137     21163     21169     21171     21137     21163     21169     21172
     21138     21137     21139     21140     21138     21137     21139     21144
     21138     21137     21163     21164     21138     21137     21163     21165
     21138     21137     21163     21169     21139     21129     21127     21150
     21139     21137     21163     21164     21139     21137     21163     21165
     21139     21137     21163     21169     21139     21144     21147     21148
     21139     21144     21147     21149     21139     21144     21147     21150
     21140     21139     21137     21163     21140     21139     21144     21145
     21140     21139     21144     21146     21140     21139     21144     21147
     21141     21140     21139     21144     21142     21140     21139     21144
     21143     21140     21139     21144     21144     21139     21137     21163
     21144     21147     21150     21151     21144     21147     21150     21152
     21145     21144     21147     21148     21145     21144     21147     21149
     21145     21144     21147     21150     21146     21144     21147     21148
     21146     21144     21147     21149     21146     21144     21147     21150
     21147     21150     21152     21153     21147     21150     21152     21157
     21148     21147     21150     21151     21148     21147     21150     21152
     21149     21147     21150     21151     21149     21147     21150     21152
     21150     21152     21153     21154     21150     21152     21153     21155
     21150     21152     21153     21156     21150     21152     21157     21158
     21150     21152     21157     21159     21150     21152     21157     21160
     21151     21150     21152     21153     21151     21150     21152     21157
     21152     21157     21160     21161     21152     21157     21160     21162
     21153     21152     21157     21158     21153     21152     21157     21159
     21153     21152     21157     21160     21154     21153     21152     21157
     21155     21153     21152     21157     21156     21153     21152     21157
     21158     21157     21160     21161     21158     21157     21160     21162
     21159     21157     21160     21161     21159     21157     21160     21162
     21163     21169     21172     21173     21163     21169     21172     21174
     21163     21169     21172     21175     21164     21163     21165     21166
     21164     21163     21165     21167     21164     21163     21165     21168
     21164     21163     21169     21170     21164     21163     21169     21171
     21164     21163     21169     21172     21165     21163     21169     21170
     21165     21163     21169     21171     21165     21163     21169     21172
     21166     21165     21163     21169     21167     21165     21163     21169
     21168     21165     21163     21169     21169     21172     21175     21176
     21169     21172     21175     21177     21169     21172     21175     21178
     21170     21169     21172     21173     21170     21169     21172     21174
     21170     21169     21172     21175     21171     21169     21172     21173
     21171     21169     21172     21174     21171     21169     21172     21175
     21172     21175     21178     21179     21172     21175     21178     21180
     21172     21175     21178     21184     21173     21172     21175     21176
     21173     21172     21175     21177     21173     21172     21175     21178
     21174     21172     21175     21176     21174     21172     21175     21177
     21174     21172     21175     21178     21175     21178     21180     21181
     21175     21178     21180     21182     21175     21178     21180     21183
     21175     21178     21184     21185     21175     21178     21184     21186
     21175     21178     21184     21187     21176     21175     21178     21179
     21176     21175     21178     21180     21176     21175     21178     21184
     21177     21175     21178     21179     21177     21175     21178     21180
     21177     21175     21178     21184     21179     21178     21180     21181
     21179     21178     21180     21182     21179     21178     21180     21183
     21179     21178     21184     21185     21179     21178     21184     21186
     21179     21178     21184     21187     21180     21178     21184     21185
     21180     21178     21184     21186     21180     21178     21184     21187
     21181     21180     21178     21184     21182     21180     21178     21184
     21183     21180     21178     21184     21188     21192     21195     21196
     21188     21192     21195     21197     21188     21192     21195     21201
     21189     21188     21192     21193     21189     21188     21192     21194
     21189     21188     21192     21195     21190     21188     21192     21193
     21190     21188     21192     21194     21190     21188     21192     21195
     21191     21188     21192     21193     21191     21188     21192     21194
     21191     21188     21192     21195     21192     21195     21201     21198
     21193     21192     21195     21196     21193     21192     21195     21197
     21193     21192     21195     21201     21194     21192     21195     21196
     21194     21192     21195     21197     21194     21192     21195     21201
     21195     21201     21198     21199     21195     21201     21198     21200
     21195     21201     21198     21202     21196     21195     21201     21198
     21197     21195     21201     21198     21198     21202     21203     21204
     21198     21202     21203     21205     21198     21202     21203     21206
     21199     21198     21202     21203     21200     21198     21202     21203
     21201     21198     21202     21203     21202     21203     21206     21207
     21202     21203     21206     21208     21202     21203     21206     21214
     21203     21206     21208     21209     21203     21206     21214     21215
     21203     21206     21214     21216     21203     21206     21214     21217
     21204     21203     21206     21207     21204     21203     21206     21208
     21204     21203     21206     21214     21205     21203     21206     21207
     21205     21203     21206     21208     21205     21203     21206     21214
     21206     21208     21209     21210     21206     21208     21209     21211
     21206     21214     21217     21218     21207     21206     21208     21209
     21207     21206     21214     21215     21207     21206     21214     21216
     21207     21206     21214     21217     21208     21206     21214     21215
     21208     21206     21214     21216     21208     21206     21214     21217
     21208     21209     21211     21212     21208     21209     21211     21213
     21208     21209     21211     21223     21209     21208     21206     21214
     21209     21211     21223     21224     21209     21211     21223     21225
     21209     21211     21223     21226     21210     21209     21211     21212
     21210     21209     21211     21213     21210     21209     21211     21223
     21211     21223     21226     21227     21211     21223     21226     21228
     21211     21223     21226     21229     21212     21211     21223     21224
     21212     21211     21223     21225     21212     21211     21223     21226
     21213     21211     21223     21224     21213     21211     21223     21225
     21213     21211     21223     21226     21214     21217     21218     21219
     21214     21217     21218     21220     21215     21214     21217     21218
     21216     21214     21217     21218     21217     21218     21220     21221
     21217     21218     21220     21222     21217     21218     21220     21270
     21218     21220     21270     21271     21218     21220     21270     21272
     21218     21220     21270     21273     21219     21218     21220     21221
     21219     21218     21220     21222     21219     21218     21220     21270
     21220     21270     21273     21274     21220     21270     21273     21275
     21220     21270     21273     21276     21221     21220     21270     21271
     21221     21220     21270     21272     21221     21220     21270     21273
     21222     21220     21270     21271     21222     21220     21270     21272
     21222     21220     21270     21273     21223     21226     21229     21230
     21223     21226     21229     21231     21224     21223     21226     21227
     21224     21223     21226     21228     21224     21223     21226     21229
     21225     21223     21226     21227     21225     21223     21226     21228
     21225     21223     21226     21229     21226     21229     21231     21232
     21226     21229     21231     21233     21227     21226     21229     21230
     21227     21226     21229     21231     21228     21226     21229     21230
     21228     21226     21229     21231     21229     21231     21233     21234
     21229     21231     21233     21235     21229     21231     21233     21236
     21230     21229     21231     21232     21230     21229     21231     21233
     21231     21233     21236     21237     21231     21233     21236     21238
     21232     21231     21233     21234     21232     21231     21233     21235
     21232     21231     21233     21236     21233     21236     21238     21239
     21233     21236     21238     21240     21234     21233     21236     21237
     21234     21233     21236     21238     21235     21233     21236     21237
     21235     21233     21236     21238     21236     21238     21240     21241
     21236     21238     21240     21242     21236     21238     21240     21243
     21237     21236     21238     21239     21237     21236     21238     21240
     21238     21240     21243     21244     21238     21240     21243     21245
     21239     21238     21240     21241     21239     21238     21240     21242
     21239     21238     21240     21243     21240     21243     21245     21246
     21240     21243     21245     21247     21241     21240     21243     21244
     21241     21240     21243     21245     21242     21240     21243     21244
     21242     21240     21243     21245     21243     21245     21247     21248
     21243     21245     21247     21249     21243     21245     21247     21250
     21244     21243     21245     21246     21244     21243     21245     21247
     21245     21247     21250     21251     21245     21247     21250     21252
     21246     21245     21247     21248     21246     21245     21247     21249
     21246     21245     21247     21250     21247     21250     21252     21253
     21247     21250     21252     21254     21248     21247     21250     21251
     21248     21247     21250     21252     21249     21247     21250     21251
     21249     21247     21250     21252     21250     21252     21254     21255
     21250     21252     21254     21256     21250     21252     21254     21257
     21251     21250     21252     21253     21251     21250     21252     21254
     21252     21254     21257     21258     21252     21254     21257     21259
     21252     21254     21257     21260     21253     21252     21254     21255
     21253     21252     21254     21256     21253     21252     21254     21257
     21254     21257     21260     21261     21254     21257     21260     21262
     21254     21257     21260     21263     21255     21254     21257     21258
     21255     21254     21257     21259     21255     21254     21257     21260
     21256     21254     21257     21258     21256     21254     21257     21259
     21256     21254     21257     21260     21257     21260     21263     21264
     21257     21260     21263     21265     21257     21260     21263     21266
     21258     21257     21260     21261     21258     21257     21260     21262
     21258     21257     21260     21263     21259     21257     21260     21261
     21259     21257     21260     21262     21259     21257     21260     21263
     21260     21263     21266     21267     21260     21263     21266     21268
     21260     21263     21266     21269     21261     21260     21263     21264
     21261     21260     21263     21265     21261     21260     21263     21266
     21262     21260     21263     21264     21262     21260     21263     21265
     21262     21260     21263     21266     21264     21263     21266     21267
     21264     21263     21266     21268     21264     21263     21266     21269
     21265     21263     21266     21267     21265     21263     21266     21268
     21265     21263     21266     21269     21270     21273     21276     21277
     21270     21273     21276     21278     21270     21273     21276     21279
     21271     21270     21273     21274     21271     21270     21273     21275
     21271     21270     21273     21276     21272     21270     21273     21274
     21272     21270     21273     21275     21272     21270     21273     21276
     21273     21276     21279     21280     21273     21276     21279     21281
     21273     21276     21279     21282     21274     21273     21276     21277
     21274     21273     21276     21278     21274     21273     21276     21279
     21275     21273     21276     21277     21275     21273     21276     21278
     21275     21273     21276     21279     21276     21279     21282     21283
     21276     21279     21282     21284     21276     21279     21282     21285
     21277     21276     21279     21280     21277     21276     21279     21281
     21277     21276     21279     21282     21278     21276     21279     21280
     21278     21276     21279     21281     21278     21276     21279     21282
     21279     21282     21285     21286     21279     21282     21285     21287
     21279     21282     21285     21288     21280     21279     21282     21283
     21280     21279     21282     21284     21280     21279     21282     21285
     21281     21279     21282     21283     21281     21279     21282     21284
     21281     21279     21282     21285     21282     21285     21288     21289
     21282     21285     21288     21290     21282     21285     21288     21291
     21283     21282     21285     21286     21283     21282     21285     21287
     21283     21282     21285     21288     21284     21282     21285     21286
     21284     21282     21285     21287     21284     21282     21285     21288
     21285     21288     21291     21292     21285     21288     21291     21293
     21285     21288     21291     21294     21286     21285     21288     21289
     21286     21285     21288     21290     21286     21285     21288     21291
     21287     21285     21288     21289     21287     21285     21288     21290
     21287     21285     21288     21291     21288     21291     21294     21295
     21288     21291     21294     21296     21288     21291     21294     21297
     21289     21288     21291     21292     21289     21288     21291     21293
     21289     21288     21291     21294     21290     21288     21291     21292
     21290     21288     21291     21293     21290     21288     21291     21294
     21291     21294     21297     21298     21291     21294     21297     21299
     21291     21294     21297     21300     21292     21291     21294     21295
     21292     21291     21294     21296     21292     21291     21294     21297
     21293     21291     21294     21295     21293     21291     21294     21296
     21293     21291     21294     21297     21294     21297     21300     21301
     21294     21297     21300     21302     21294     21297     21300     21303
     21295     21294     21297     21298     21295     21294     21297     21299
     21295     21294     21297     21300     21296     21294     21297     21298
     21296     21294     21297     21299     21296     21294     21297     21300
     21297     21300     21303     21304     21297     21300     21303     21305
     21297     21300     21303     21306     21298     21297     21300     21301
     21298     21297     21300     21302     21298     21297     21300     21303
     21299     21297     21300     21301     21299     21297     21300     21302
     21299     21297     21300     21303     21300     21303     21306     21307
     21300     21303     21306     21308     21300     21303     21306     21309
     21301     21300     21303     21304     21301     21300     21303     21305
     21301     21300     21303     21306     21302     21300     21303     21304
     21302     21300     21303     21305     21302     21300     21303     21306
     21303     21306     21309     21310     21303     21306     21309     21311
     21303     21306     21309     21312     21304     21303     21306     21307
     21304     21303     21306     21308     21304     21303     21306     21309
     21305     21303     21306     21307     21305     21303     21306     21308
     21305     21303     21306     21309     21306     21309     21312     21313
     21306     21309     21312     21314     21306     21309     21312     21315
     21307     21306     21309     21310     21307     21306     21309     21311
     21307     21306     21309     21312     21308     21306     21309     21310
     21308     21306     21309     21311     21308     21306     21309     21312
     21309     21312     21315     21316     21309     21312     21315     21317
     21309     21312     21315     21318     21310     21309     21312     21313
     21310     21309     21312     21314     21310     21309     21312     21315
     21311     21309     21312     21313     21311     21309     21312     21314
     21311     21309     21312     21315     21313     21312     21315     21316
     21313     21312     21315     21317     21313     21312     21315     21318
     21314     21312     21315     21316     21314     21312     21315     21317
     21314     21312     21315     21318     21319     21332     21335     21336
     21319     21332     21335     21337     21319     21332     21335     21342
     21320     21319     21324     21325     21320     21319     21324     21326
     21320     21319     21324     21327     21320     21319     21328     21329
     21320     21319     21328     21330     21320     21319     21328     21331
     21320     21319     21332     21333     21320     21319     21332     21334
     21320     21319     21332     21335     21321     21320     21319     21324
     21321     21320     21319     21328     21321     21320     21319     21332
     21322     21320     21319     21324     21322     21320     21319     21328
     21322     21320     21319     21332     21323     21320     21319     21324
     21323     21320     21319     21328     21323     21320     21319     21332
     21324     21319     21328     21329     21324     21319     21328     21330
     21324     21319     21328     21331     21324     21319     21332     21333
     21324     21319     21332     21334     21324     21319     21332     21335
     21325     21324     21319     21328     21325     21324     21319     21332
     21326     21324     21319     21328     21326     21324     21319     21332
     21327     21324     21319     21328     21327     21324     21319     21332
     21328     21319     21332     21333     21328     21319     21332     21334
     21328     21319     21332     21335     21329     21328     21319     21332
     21330     21328     21319     21332     21331     21328     21319     21332
     21332     21335     21342     21338     21333     21332     21335     21336
     21333     21332     21335     21337     21333     21332     21335     21342
     21334     21332     21335     21336     21334     21332     21335     21337
     21334     21332     21335     21342     21335     21342     21338     21339
     21335     21342     21338     21340     21335     21342     21338     21341
     21336     21335     21342     21338     21337     21335     21342     21338
     21338     21341     21343     21344     21338     21341     21343     21345
     21338     21341     21343     21348     21339     21338     21341     21343
     21340     21338     21341     21343     21341     21343     21348     21346
     21341     21343     21348     21349     21341     21343     21348     21350
     21342     21338     21341     21343     21343     21348     21346     21347
     21343     21348     21346     21398     21343     21348     21350     21351
     21343     21348     21350     21352     21343     21348     21350     21354
     21344     21343     21348     21346     21344     21343     21348     21349
     21344     21343     21348     21350     21345     21343     21348     21346
     21345     21343     21348     21349     21345     21343     21348     21350
     21346     21348     21350     21351     21346     21348     21350     21352
     21346     21348     21350     21354     21346     21398     21400     21401
     21346     21398     21400     21402     21346     21398     21400     21403
     21347     21346     21348     21349     21347     21346     21348     21350
     21347     21346     21398     21399     21347     21346     21398     21400
     21348     21346     21398     21399     21348     21346     21398     21400
     21348     21350     21352     21353     21348     21350     21354     21355
     21348     21350     21354     21356     21349     21348     21346     21398
     21349     21348     21350     21351     21349     21348     21350     21352
     21349     21348     21350     21354     21350     21348     21346     21398
     21350     21354     21356     21357     21350     21354     21356     21358
     21351     21350     21352     21353     21351     21350     21354     21355
     21351     21350     21354     21356     21352     21350     21354     21355
     21352     21350     21354     21356     21353     21352     21350     21354
     21354     21356     21358     21359     21354     21356     21358     21360
     21354     21356     21358     21361     21355     21354     21356     21357
     21355     21354     21356     21358     21356     21358     21361     21362
     21356     21358     21361     21363     21356     21358     21361     21364
     21357     21356     21358     21359     21357     21356     21358     21360
     21357     21356     21358     21361     21358     21361     21364     21365
     21358     21361     21364     21366     21358     21361     21364     21367
     21359     21358     21361     21362     21359     21358     21361     21363
     21359     21358     21361     21364     21360     21358     21361     21362
     21360     21358     21361     21363     21360     21358     21361     21364
     21361     21364     21367     21368     21361     21364     21367     21369
     21361     21364     21367     21370     21362     21361     21364     21365
     21362     21361     21364     21366     21362     21361     21364     21367
     21363     21361     21364     21365     21363     21361     21364     21366
     21363     21361     21364     21367     21364     21367     21370     21371
     21364     21367     21370     21372     21364     21367     21370     21373
     21365     21364     21367     21368     21365     21364     21367     21369
     21365     21364     21367     21370     21366     21364     21367     21368
     21366     21364     21367     21369     21366     21364     21367     21370
     21367     21370     21373     21374     21367     21370     21373     21375
     21367     21370     21373     21376     21368     21367     21370     21371
     21368     21367     21370     21372     21368     21367     21370     21373
     21369     21367     21370     21371     21369     21367     21370     21372
     21369     21367     21370     21373     21370     21373     21376     21377
     21370     21373     21376     21378     21370     21373     21376     21379
     21371     21370     21373     21374     21371     21370     21373     21375
     21371     21370     21373     21376     21372     21370     21373     21374
     21372     21370     21373     21375     21372     21370     21373     21376
     21373     21376     21379     21380     21373     21376     21379     21381
     21373     21376     21379     21382     21374     21373     21376     21377
     21374     21373     21376     21378     21374     21373     21376     21379
     21375     21373     21376     21377     21375     21373     21376     21378
     21375     21373     21376     21379     21376     21379     21382     21383
     21376     21379     21382     21384     21376     21379     21382     21385
     21377     21376     21379     21380     21377     21376     21379     21381
     21377     21376     21379     21382     21378     21376     21379     21380
     21378     21376     21379     21381     21378     21376     21379     21382
     21379     21382     21385     21386     21379     21382     21385     21387
     21379     21382     21385     21388     21380     21379     21382     21383
     21380     21379     21382     21384     21380     21379     21382     21385
     21381     21379     21382     21383     21381     21379     21382     21384
     21381     21379     21382     21385     21382     21385     21388     21389
     21382     21385     21388     21390     21382     21385     21388     21391
     21383     21382     21385     21386     21383     21382     21385     21387
     21383     21382     21385     21388     21384     21382     21385     21386
     21384     21382     21385     21387     21384     21382     21385     21388
     21385     21388     21391     21392     21385     21388     21391     21393
     21385     21388     21391     21394     21386     21385     21388     21389
     21386     21385     21388     21390     21386     21385     21388     21391
     21387     21385     21388     21389     21387     21385     21388     21390
     21387     21385     21388     21391     21388     21391     21394     21395
     21388     21391     21394     21396     21388     21391     21394     21397
     21389     21388     21391     21392     21389     21388     21391     21393
     21389     21388     21391     21394     21390     21388     21391     21392
     21390     21388     21391     21393     21390     21388     21391     21394
     21392     21391     21394     21395     21392     21391     21394     21396
     21392     21391     21394     21397     21393     21391     21394     21395
     21393     21391     21394     21396     21393     21391     21394     21397
     21398     21400     21403     21404     21398     21400     21403     21405
     21398     21400     21403     21406     21399     21398     21400     21401
     21399     21398     21400     21402     21399     21398     21400     21403
     21400     21403     21406     21407     21400     21403     21406     21408
     21400     21403     21406     21409     21401     21400     21403     21404
     21401     21400     21403     21405     21401     21400     21403     21406
     21402     21400     21403     21404     21402     21400     21403     21405
     21402     21400     21403     21406     21403     21406     21409     21410
     21403     21406     21409     21411     21403     21406     21409     21412
     21404     21403     21406     21407     21404     21403     21406     21408
     21404     21403     21406     21409     21405     21403     21406     21407
     21405     21403     21406     21408     21405     21403     21406     21409
     21406     21409     21412     21413     21406     21409     21412     21414
     21406     21409     21412     21415     21407     21406     21409     21410
     21407     21406     21409     21411     21407     21406     21409     21412
     21408     21406     21409     21410     21408     21406     21409     21411
     21408     21406     21409     21412     21409     21412     21415     21416
     21409     21412     21415     21417     21409     21412     21415     21418
     21410     21409     21412     21413     21410     21409     21412     21414
     21410     21409     21412     21415     21411     21409     21412     21413
     21411     21409     21412     21414     21411     21409     21412     21415
     21412     21415     21418     21419     21412     21415     21418     21420
     21412     21415     21418     21421     21413     21412     21415     21416
     21413     21412     21415     21417     21413     21412     21415     21418
     21414     21412     21415     21416     21414     21412     21415     21417
     21414     21412     21415     21418     21415     21418     21421     21422
     21415     21418     21421     21423     21416     21415     21418     21419
     21416     21415     21418     21420     21416     21415     21418     21421
     21417     21415     21418     21419     21417     21415     21418     21420
     21417     21415     21418     21421     21418     21421     21423     21424
     21418     21421     21423     21425     21419     21418     21421     21422
     21419     21418     21421     21423     21420     21418     21421     21422
     21420     21418     21421     21423     21421     21423     21425     21426
     21421     21423     21425     21427     21421     21423     21425     21428
     21422     21421     21423     21424     21422     21421     21423     21425
     21423     21425     21428     21429     21423     21425     21428     21430
     21423     21425     21428     21431     21424     21423     21425     21426
     21424     21423     21425     21427     21424     21423     21425     21428
     21425     21428     21431     21432     21425     21428     21431     21433
     21425     21428     21431     21434     21426     21425     21428     21429
     21426     21425     21428     21430     21426     21425     21428     21431
     21427     21425     21428     21429     21427     21425     21428     21430
     21427     21425     21428     21431     21428     21431     21434     21435
     21428     21431     21434     21436     21428     21431     21434     21437
     21429     21428     21431     21432     21429     21428     21431     21433
     21429     21428     21431     21434     21430     21428     21431     21432
     21430     21428     21431     21433     21430     21428     21431     21434
     21431     21434     21437     21438     21431     21434     21437     21439
     21431     21434     21437     21440     21432     21431     21434     21435
     21432     21431     21434     21436     21432     21431     21434     21437
     21433     21431     21434     21435     21433     21431     21434     21436
     21433     21431     21434     21437     21434     21437     21440     21441
     21434     21437     21440     21442     21434     21437     21440     21443
     21435     21434     21437     21438     21435     21434     21437     21439
     21435     21434     21437     21440     21436     21434     21437     21438
     21436     21434     21437     21439     21436     21434     21437     21440
     21437     21440     21443     21444     21437     21440     21443     21445
     21437     21440     21443     21446     21438     21437     21440     21441
     21438     21437     21440     21442     21438     21437     21440     21443
     21439     21437     21440     21441     21439     21437     21440     21442
     21439     21437     21440     21443     21440     21443     21446     21447
     21440     21443     21446     21448     21440     21443     21446     21449
     21441     21440     21443     21444     21441     21440     21443     21445
     21441     21440     21443     21446     21442     21440     21443     21444
     21442     21440     21443     21445     21442     21440     21443     21446
     21444     21443     21446     21447     21444     21443     21446     21448
     21444     21443     21446     21449     21445     21443     21446     21447
     21445     21443     21446     21448     21445     21443     21446     21449
     21450     21454     21456     21457     21450     21454     21456     21458
     21450     21454     21459     21460     21450     21454     21459     21461
     21450     21454     21459     21465     21451     21450     21454     21455
     21451     21450     21454     21456     21451     21450     21454     21459
     21452     21450     21454     21455     21452     21450     21454     21456
     21452     21450     21454     21459     21453     21450     21454     21455
     21453     21450     21454     21456     21453     21450     21454     21459
     21454     21459     21465     21462     21455     21454     21456     21457
     21455     21454     21456     21458     21455     21454     21459     21460
     21455     21454     21459     21461     21455     21454     21459     21465
     21456     21454     21459     21460     21456     21454     21459     21461
     21456     21454     21459     21465     21457     21456     21454     21459
     21458     21456     21454     21459     21459     21465     21462     21463
     21459     21465     21462     21464     21459     21465     21462     21466
     21460     21459     21465     21462     21461     21459     21465     21462
     21462     21466     21467     21468     21462     21466     21467     21469
     21462     21466     21467     21470     21463     21462     21466     21467
     21464     21462     21466     21467     21465     21462     21466     21467
     21466     21467     21470     21471     21466     21467     21470     21472
     21466     21467     21470     21478     21467     21470     21472     21473
     21467     21470     21478     21479     21467     21470     21478     21480
     21467     21470     21478     21481     21468     21467     21470     21471
     21468     21467     21470     21472     21468     21467     21470     21478
     21469     21467     21470     21471     21469     21467     21470     21472
     21469     21467     21470     21478     21470     21472     21473     21474
     21470     21472     21473     21475     21470     21478     21481     21482
     21471     21470     21472     21473     21471     21470     21478     21479
     21471     21470     21478     21480     21471     21470     21478     21481
     21472     21470     21478     21479     21472     21470     21478     21480
     21472     21470     21478     21481     21472     21473     21475     21476
     21472     21473     21475     21477     21472     21473     21475     21487
     21473     21472     21470     21478     21473     21475     21487     21488
     21473     21475     21487     21489     21473     21475     21487     21490
     21474     21473     21475     21476     21474     21473     21475     21477
     21474     21473     21475     21487     21475     21487     21490     21491
     21475     21487     21490     21492     21475     21487     21490     21493
     21476     21475     21487     21488     21476     21475     21487     21489
     21476     21475     21487     21490     21477     21475     21487     21488
     21477     21475     21487     21489     21477     21475     21487     21490
     21478     21481     21482     21483     21478     21481     21482     21484
     21479     21478     21481     21482     21480     21478     21481     21482
     21481     21482     21484     21485     21481     21482     21484     21486
     21481     21482     21484     21534     21482     21484     21534     21535
     21482     21484     21534     21536     21482     21484     21534     21537
     21483     21482     21484     21485     21483     21482     21484     21486
     21483     21482     21484     21534     21484     21534     21537     21538
     21484     21534     21537     21539     21484     21534     21537     21540
     21485     21484     21534     21535     21485     21484     21534     21536
     21485     21484     21534     21537     21486     21484     21534     21535
     21486     21484     21534     21536     21486     21484     21534     21537
     21487     21490     21493     21494     21487     21490     21493     21495
     21488     21487     21490     21491     21488     21487     21490     21492
     21488     21487     21490     21493     21489     21487     21490     21491
     21489     21487     21490     21492     21489     21487     21490     21493
     21490     21493     21495     21496     21490     21493     21495     21497
     21491     21490     21493     21494     21491     21490     21493     21495
     21492     21490     21493     21494     21492     21490     21493     21495
     21493     21495     21497     21498     21493     21495     21497     21499
     21493     21495     21497     21500     21494     21493     21495     21496
     21494     21493     21495     21497     21495     21497     21500     21501
     21495     21497     21500     21502     21496     21495     21497     21498
     21496     21495     21497     21499     21496     21495     21497     21500
     21497     21500     21502     21503     21497     21500     21502     21504
     21498     21497     21500     21501     21498     21497     21500     21502
     21499     21497     21500     21501     21499     21497     21500     21502
     21500     21502     21504     21505     21500     21502     21504     21506
     21500     21502     21504     21507     21501     21500     21502     21503
     21501     21500     21502     21504     21502     21504     21507     21508
     21502     21504     21507     21509     21503     21502     21504     21505
     21503     21502     21504     21506     21503     21502     21504     21507
     21504     21507     21509     21510     21504     21507     21509     21511
     21505     21504     21507     21508     21505     21504     21507     21509
     21506     21504     21507     21508     21506     21504     21507     21509
     21507     21509     21511     21512     21507     21509     21511     21513
     21507     21509     21511     21514     21508     21507     21509     21510
     21508     21507     21509     21511     21509     21511     21514     21515
     21509     21511     21514     21516     21510     21509     21511     21512
     21510     21509     21511     21513     21510     21509     21511     21514
     21511     21514     21516     21517     21511     21514     21516     21518
     21512     21511     21514     21515     21512     21511     21514     21516
     21513     21511     21514     21515     21513     21511     21514     21516
     21514     21516     21518     21519     21514     21516     21518     21520
     21514     21516     21518     21521     21515     21514     21516     21517
     21515     21514     21516     21518     21516     21518     21521     21522
     21516     21518     21521     21523     21516     21518     21521     21524
     21517     21516     21518     21519     21517     21516     21518     21520
     21517     21516     21518     21521     21518     21521     21524     21525
     21518     21521     21524     21526     21518     21521     21524     21527
     21519     21518     21521     21522     21519     21518     21521     21523
     21519     21518     21521     21524     21520     21518     21521     21522
     21520     21518     21521     21523     21520     21518     21521     21524
     21521     21524     21527     21528     21521     21524     21527     21529
     21521     21524     21527     21530     21522     21521     21524     21525
     21522     21521     21524     21526     21522     21521     21524     21527
     21523     21521     21524     21525     21523     21521     21524     21526
     21523     21521     21524     21527     21524     21527     21530     21531
     21524     21527     21530     21532     21524     21527     21530     21533
     21525     21524     21527     21528     21525     21524     21527     21529
     21525     21524     21527     21530     21526     21524     21527     21528
     21526     21524     21527     21529     21526     21524     21527     21530
     21528     21527     21530     21531     21528     21527     21530     21532
     21528     21527     21530     21533     21529     21527     21530     21531
     21529     21527     21530     21532     21529     21527     21530     21533
     21534     21537     21540     21541     21534     21537     21540     21542
     21534     21537     21540     21543     21535     21534     21537     21538
     21535     21534     21537     21539     21535     21534     21537     21540
     21536     21534     21537     21538     21536     21534     21537     21539
     21536     21534     21537     21540     21537     21540     21543     21544
     21537     21540     21543     21545     21537     21540     21543     21546
     21538     21537     21540     21541     21538     21537     21540     21542
     21538     21537     21540     21543     21539     21537     21540     21541
     21539     21537     21540     21542     21539     21537     21540     21543
     21540     21543     21546     21547     21540     21543     21546     21548
     21540     21543     21546     21549     21541     21540     21543     21544
     21541     21540     21543     21545     21541     21540     21543     21546
     21542     21540     21543     21544     21542     21540     21543     21545
     21542     21540     21543     21546     21543     21546     21549     21550
     21543     21546     21549     21551     21543     21546     21549     21552
     21544     21543     21546     21547     21544     21543     21546     21548
     21544     21543     21546     21549     21545     21543     21546     21547
     21545     21543     21546     21548     21545     21543     21546     21549
     21546     21549     21552     21553     21546     21549     21552     21554
     21546     21549     21552     21555     21547     21546     21549     21550
     21547     21546     21549     21551     21547     21546     21549     21552
     21548     21546     21549     21550     21548     21546     21549     21551
     21548     21546     21549     21552     21549     21552     21555     21556
     21549     21552     21555     21557     21549     21552     21555     21558
     21550     21549     21552     21553     21550     21549     21552     21554
     21550     21549     21552     21555     21551     21549     21552     21553
     21551     21549     21552     21554     21551     21549     21552     21555
     21552     21555     21558     21559     21552     21555     21558     21560
     21552     21555     21558     21561     21553     21552     21555     21556
     21553     21552     21555     21557     21553     21552     21555     21558
     21554     21552     21555     21556     21554     21552     21555     21557
     21554     21552     21555     21558     21555     21558     21561     21562
     21555     21558     21561     21563     21555     21558     21561     21564
     21556     21555     21558     21559     21556     21555     21558     21560
     21556     21555     21558     21561     21557     21555     21558     21559
     21557     21555     21558     21560     21557     21555     21558     21561
     21558     21561     21564     21565     21558     21561     21564     21566
     21558     21561     21564     21567     21559     21558     21561     21562
     21559     21558     21561     21563     21559     21558     21561     21564
     21560     21558     21561     21562     21560     21558     21561     21563
     21560     21558     21561     21564     21561     21564     21567     21568
     21561     21564     21567     21569     21561     21564     21567     21570
     21562     21561     21564     21565     21562     21561     21564     21566
     21562     21561     21564     21567     21563     21561     21564     21565
     21563     21561     21564     21566     21563     21561     21564     21567
     21564     21567     21570     21571     21564     21567     21570     21572
     21564     21567     21570     21573     21565     21564     21567     21568
     21565     21564     21567     21569     21565     21564     21567     21570
     21566     21564     21567     21568     21566     21564     21567     21569
     21566     21564     21567     21570     21567     21570     21573     21574
     21567     21570     21573     21575     21567     21570     21573     21576
     21568     21567     21570     21571     21568     21567     21570     21572
     21568     21567     21570     21573     21569     21567     21570     21571
     21569     21567     21570     21572     21569     21567     21570     21573
     21570     21573     21576     21577     21570     21573     21576     21578
     21570     21573     21576     21579     21571     21570     21573     21574
     21571     21570     21573     21575     21571     21570     21573     21576
     21572     21570     21573     21574     21572     21570     21573     21575
     21572     21570     21573     21576     21573     21576     21579     21580
     21573     21576     21579     21581     21573     21576     21579     21582
     21574     21573     21576     21577     21574     21573     21576     21578
     21574     21573     21576     21579     21575     21573     21576     21577
     21575     21573     21576     21578     21575     21573     21576     21579
     21577     21576     21579     21580     21577     21576     21579     21581
     21577     21576     21579     21582     21578     21576     21579     21580
     21578     21576     21579     21581     21578     21576     21579     21582
     21583     21596     21599     21600     21583     21596     21599     21601
     21583     21596     21599     21606     21584     21583     21588     21589
     21584     21583     21588     21590     21584     21583     21588     21591
     21584     21583     21592     21593     21584     21583     21592     21594
     21584     21583     21592     21595     21584     21583     21596     21597
     21584     21583     21596     21598     21584     21583     21596     21599
     21585     21584     21583     21588     21585     21584     21583     21592
     21585     21584     21583     21596     21586     21584     21583     21588
     21586     21584     21583     21592     21586     21584     21583     21596
     21587     21584     21583     21588     21587     21584     21583     21592
     21587     21584     21583     21596     21588     21583     21592     21593
     21588     21583     21592     21594     21588     21583     21592     21595
     21588     21583     21596     21597     21588     21583     21596     21598
     21588     21583     21596     21599     21589     21588     21583     21592
     21589     21588     21583     21596     21590     21588     21583     21592
     21590     21588     21583     21596     21591     21588     21583     21592
     21591     21588     21583     21596     21592     21583     21596     21597
     21592     21583     21596     21598     21592     21583     21596     21599
     21593     21592     21583     21596     21594     21592     21583     21596
     21595     21592     21583     21596     21596     21599     21606     21602
     21597     21596     21599     21600     21597     21596     21599     21601
     21597     21596     21599     21606     21598     21596     21599     21600
     21598     21596     21599     21601     21598     21596     21599     21606
     21599     21606     21602     21603     21599     21606     21602     21604
     21599     21606     21602     21605     21600     21599     21606     21602
     21601     21599     21606     21602     21602     21605     21607     21608
     21602     21605     21607     21609     21602     21605     21607     21612
     21603     21602     21605     21607     21604     21602     21605     21607
     21605     21607     21612     21610     21605     21607     21612     21613
     21605     21607     21612     21614     21606     21602     21605     21607
     21607     21612     21610     21611     21607     21612     21610     21662
     21607     21612     21614     21615     21607     21612     21614     21616
     21607     21612     21614     21618     21608     21607     21612     21610
     21608     21607     21612     21613     21608     21607     21612     21614
     21609     21607     21612     21610     21609     21607     21612     21613
     21609     21607     21612     21614     21610     21612     21614     21615
     21610     21612     21614     21616     21610     21612     21614     21618
     21610     21662     21664     21665     21610     21662     21664     21666
     21610     21662     21664     21667     21611     21610     21612     21613
     21611     21610     21612     21614     21611     21610     21662     21663
     21611     21610     21662     21664     21612     21610     21662     21663
     21612     21610     21662     21664     21612     21614     21616     21617
     21612     21614     21618     21619     21612     21614     21618     21620
     21613     21612     21610     21662     21613     21612     21614     21615
     21613     21612     21614     21616     21613     21612     21614     21618
     21614     21612     21610     21662     21614     21618     21620     21621
     21614     21618     21620     21622     21615     21614     21616     21617
     21615     21614     21618     21619     21615     21614     21618     21620
     21616     21614     21618     21619     21616     21614     21618     21620
     21617     21616     21614     21618     21618     21620     21622     21623
     21618     21620     21622     21624     21618     21620     21622     21625
     21619     21618     21620     21621     21619     21618     21620     21622
     21620     21622     21625     21626     21620     21622     21625     21627
     21620     21622     21625     21628     21621     21620     21622     21623
     21621     21620     21622     21624     21621     21620     21622     21625
     21622     21625     21628     21629     21622     21625     21628     21630
     21622     21625     21628     21631     21623     21622     21625     21626
     21623     21622     21625     21627     21623     21622     21625     21628
     21624     21622     21625     21626     21624     21622     21625     21627
     21624     21622     21625     21628     21625     21628     21631     21632
     21625     21628     21631     21633     21625     21628     21631     21634
     21626     21625     21628     21629     21626     21625     21628     21630
     21626     21625     21628     21631     21627     21625     21628     21629
     21627     21625     21628     21630     21627     21625     21628     21631
     21628     21631     21634     21635     21628     21631     21634     21636
     21628     21631     21634     21637     21629     21628     21631     21632
     21629     21628     21631     21633     21629     21628     21631     21634
     21630     21628     21631     21632     21630     21628     21631     21633
     21630     21628     21631     21634     21631     21634     21637     21638
     21631     21634     21637     21639     21631     21634     21637     21640
     21632     21631     21634     21635     21632     21631     21634     21636
     21632     21631     21634     21637     21633     21631     21634     21635
     21633     21631     21634     21636     21633     21631     21634     21637
     21634     21637     21640     21641     21634     21637     21640     21642
     21634     21637     21640     21643     21635     21634     21637     21638
     21635     21634     21637     21639     21635     21634     21637     21640
     21636     21634     21637     21638     21636     21634     21637     21639
     21636     21634     21637     21640     21637     21640     21643     21644
     21637     21640     21643     21645     21637     21640     21643     21646
     21638     21637     21640     21641     21638     21637     21640     21642
     21638     21637     21640     21643     21639     21637     21640     21641
     21639     21637     21640     21642     21639     21637     21640     21643
     21640     21643     21646     21647     21640     21643     21646     21648
     21640     21643     21646     21649     21641     21640     21643     21644
     21641     21640     21643     21645     21641     21640     21643     21646
     21642     21640     21643     21644     21642     21640     21643     21645
     21642     21640     21643     21646     21643     21646     21649     21650
     21643     21646     21649     21651     21643     21646     21649     21652
     21644     21643     21646     21647     21644     21643     21646     21648
     21644     21643     21646     21649     21645     21643     21646     21647
     21645     21643     21646     21648     21645     21643     21646     21649
     21646     21649     21652     21653     21646     21649     21652     21654
     21646     21649     21652     21655     21647     21646     21649     21650
     21647     21646     21649     21651     21647     21646     21649     21652
     21648     21646     21649     21650     21648     21646     21649     21651
     21648     21646     21649     21652     21649     21652     21655     21656
     21649     21652     21655     21657     21649     21652     21655     21658
     21650     21649     21652     21653     21650     21649     21652     21654
     21650     21649     21652     21655     21651     21649     21652     21653
     21651     21649     21652     21654     21651     21649     21652     21655
     21652     21655     21658     21659     21652     21655     21658     21660
     21652     21655     21658     21661     21653     21652     21655     21656
     21653     21652     21655     21657     21653     21652     21655     21658
     21654     21652     21655     21656     21654     21652     21655     21657
     21654     21652     21655     21658     21656     21655     21658     21659
     21656     21655     21658     21660     21656     21655     21658     21661
     21657     21655     21658     21659     21657     21655     21658     21660
     21657     21655     21658     21661     21662     21664     21667     21668
     21662     21664     21667     21669     21662     21664     21667     21670
     21663     21662     21664     21665     21663     21662     21664     21666
     21663     21662     21664     21667     21664     21667     21670     21671
     21664     21667     21670     21672     21664     21667     21670     21673
     21665     21664     21667     21668     21665     21664     21667     21669
     21665     21664     21667     21670     21666     21664     21667     21668
     21666     21664     21667     21669     21666     21664     21667     21670
     21667     21670     21673     21674     21667     21670     21673     21675
     21667     21670     21673     21676     21668     21667     21670     21671
     21668     21667     21670     21672     21668     21667     21670     21673
     21669     21667     21670     21671     21669     21667     21670     21672
     21669     21667     21670     21673     21670     21673     21676     21677
     21670     21673     21676     21678     21670     21673     21676     21679
     21671     21670     21673     21674     21671     21670     21673     21675
     21671     21670     21673     21676     21672     21670     21673     21674
     21672     21670     21673     21675     21672     21670     21673     21676
     21673     21676     21679     21680     21673     21676     21679     21681
     21673     21676     21679     21682     21674     21673     21676     21677
     21674     21673     21676     21678     21674     21673     21676     21679
     21675     21673     21676     21677     21675     21673     21676     21678
     21675     21673     21676     21679     21676     21679     21682     21683
     21676     21679     21682     21684     21676     21679     21682     21685
     21677     21676     21679     21680     21677     21676     21679     21681
     21677     21676     21679     21682     21678     21676     21679     21680
     21678     21676     21679     21681     21678     21676     21679     21682
     21679     21682     21685     21686     21679     21682     21685     21687
     21680     21679     21682     21683     21680     21679     21682     21684
     21680     21679     21682     21685     21681     21679     21682     21683
     21681     21679     21682     21684     21681     21679     21682     21685
     21682     21685     21687     21688     21682     21685     21687     21689
     21683     21682     21685     21686     21683     21682     21685     21687
     21684     21682     21685     21686     21684     21682     21685     21687
     21685     21687     21689     21690     21685     21687     21689     21691
     21685     21687     21689     21692     21686     21685     21687     21688
     21686     21685     21687     21689     21687     21689     21692     21693
     21687     21689     21692     21694     21687     21689     21692     21695
     21688     21687     21689     21690     21688     21687     21689     21691
     21688     21687     21689     21692     21689     21692     21695     21696
     21689     21692     21695     21697     21689     21692     21695     21698
     21690     21689     21692     21693     21690     21689     21692     21694
     21690     21689     21692     21695     21691     21689     21692     21693
     21691     21689     21692     21694     21691     21689     21692     21695
     21692     21695     21698     21699     21692     21695     21698     21700
     21692     21695     21698     21701     21693     21692     21695     21696
     21693     21692     21695     21697     21693     21692     21695     21698
     21694     21692     21695     21696     21694     21692     21695     21697
     21694     21692     21695     21698     21695     21698     21701     21702
     21695     21698     21701     21703     21695     21698     21701     21704
     21696     21695     21698     21699     21696     21695     21698     21700
     21696     21695     21698     21701     21697     21695     21698     21699
     21697     21695     21698     21700     21697     21695     21698     21701
     21698     21701     21704     21705     21698     21701     21704     21706
     21698     21701     21704     21707     21699     21698     21701     21702
     21699     21698     21701     21703     21699     21698     21701     21704
     21700     21698     21701     21702     21700     21698     21701     21703
     21700     21698     21701     21704     21701     21704     21707     21708
     21701     21704     21707     21709     21701     21704     21707     21710
     21702     21701     21704     21705     21702     21701     21704     21706
     21702     21701     21704     21707     21703     21701     21704     21705
     21703     21701     21704     21706     21703     21701     21704     21707
     21704     21707     21710     21711     21704     21707     21710     21712
     21704     21707     21710     21713     21705     21704     21707     21708
     21705     21704     21707     21709     21705     21704     21707     21710
     21706     21704     21707     21708     21706     21704     21707     21709
     21706     21704     21707     21710     21708     21707     21710     21711
     21708     21707     21710     21712     21708     21707     21710     21713
     21709     21707     21710     21711     21709     21707     21710     21712
     21709     21707     21710     21713     21714     21727     21730     21731
     21714     21727     21730     21732     21714     21727     21730     21737
     21715     21714     21719     21720     21715     21714     21719     21721
     21715     21714     21719     21722     21715     21714     21723     21724
     21715     21714     21723     21725     21715     21714     21723     21726
     21715     21714     21727     21728     21715     21714     21727     21729
     21715     21714     21727     21730     21716     21715     21714     21719
     21716     21715     21714     21723     21716     21715     21714     21727
     21717     21715     21714     21719     21717     21715     21714     21723
     21717     21715     21714     21727     21718     21715     21714     21719
     21718     21715     21714     21723     21718     21715     21714     21727
     21719     21714     21723     21724     21719     21714     21723     21725
     21719     21714     21723     21726     21719     21714     21727     21728
     21719     21714     21727     21729     21719     21714     21727     21730
     21720     21719     21714     21723     21720     21719     21714     21727
     21721     21719     21714     21723     21721     21719     21714     21727
     21722     21719     21714     21723     21722     21719     21714     21727
     21723     21714     21727     21728     21723     21714     21727     21729
     21723     21714     21727     21730     21724     21723     21714     21727
     21725     21723     21714     21727     21726     21723     21714     21727
     21727     21730     21737     21733     21728     21727     21730     21731
     21728     21727     21730     21732     21728     21727     21730     21737
     21729     21727     21730     21731     21729     21727     21730     21732
     21729     21727     21730     21737     21730     21737     21733     21734
     21730     21737     21733     21735     21730     21737     21733     21736
     21731     21730     21737     21733     21732     21730     21737     21733
     21733     21736     21738     21739     21733     21736     21738     21740
     21733     21736     21738     21743     21734     21733     21736     21738
     21735     21733     21736     21738     21736     21738     21743     21741
     21736     21738     21743     21744     21736     21738     21743     21745
     21737     21733     21736     21738     21738     21743     21741     21742
     21738     21743     21741     21793     21738     21743     21745     21746
     21738     21743     21745     21747     21738     21743     21745     21749
     21739     21738     21743     21741     21739     21738     21743     21744
     21739     21738     21743     21745     21740     21738     21743     21741
     21740     21738     21743     21744     21740     21738     21743     21745
     21741     21743     21745     21746     21741     21743     21745     21747
     21741     21743     21745     21749     21741     21793     21795     21796
     21741     21793     21795     21797     21741     21793     21795     21798
     21742     21741     21743     21744     21742     21741     21743     21745
     21742     21741     21793     21794     21742     21741     21793     21795
     21743     21741     21793     21794     21743     21741     21793     21795
     21743     21745     21747     21748     21743     21745     21749     21750
     21743     21745     21749     21751     21744     21743     21741     21793
     21744     21743     21745     21746     21744     21743     21745     21747
     21744     21743     21745     21749     21745     21743     21741     21793
     21745     21749     21751     21752     21745     21749     21751     21753
     21746     21745     21747     21748     21746     21745     21749     21750
     21746     21745     21749     21751     21747     21745     21749     21750
     21747     21745     21749     21751     21748     21747     21745     21749
     21749     21751     21753     21754     21749     21751     21753     21755
     21749     21751     21753     21756     21750     21749     21751     21752
     21750     21749     21751     21753     21751     21753     21756     21757
     21751     21753     21756     21758     21751     21753     21756     21759
     21752     21751     21753     21754     21752     21751     21753     21755
     21752     21751     21753     21756     21753     21756     21759     21760
     21753     21756     21759     21761     21753     21756     21759     21762
     21754     21753     21756     21757     21754     21753     21756     21758
     21754     21753     21756     21759     21755     21753     21756     21757
     21755     21753     21756     21758     21755     21753     21756     21759
     21756     21759     21762     21763     21756     21759     21762     21764
     21756     21759     21762     21765     21757     21756     21759     21760
     21757     21756     21759     21761     21757     21756     21759     21762
     21758     21756     21759     21760     21758     21756     21759     21761
     21758     21756     21759     21762     21759     21762     21765     21766
     21759     21762     21765     21767     21759     21762     21765     21768
     21760     21759     21762     21763     21760     21759     21762     21764
     21760     21759     21762     21765     21761     21759     21762     21763
     21761     21759     21762     21764     21761     21759     21762     21765
     21762     21765     21768     21769     21762     21765     21768     21770
     21762     21765     21768     21771     21763     21762     21765     21766
     21763     21762     21765     21767     21763     21762     21765     21768
     21764     21762     21765     21766     21764     21762     21765     21767
     21764     21762     21765     21768     21765     21768     21771     21772
     21765     21768     21771     21773     21765     21768     21771     21774
     21766     21765     21768     21769     21766     21765     21768     21770
     21766     21765     21768     21771     21767     21765     21768     21769
     21767     21765     21768     21770     21767     21765     21768     21771
     21768     21771     21774     21775     21768     21771     21774     21776
     21768     21771     21774     21777     21769     21768     21771     21772
     21769     21768     21771     21773     21769     21768     21771     21774
     21770     21768     21771     21772     21770     21768     21771     21773
     21770     21768     21771     21774     21771     21774     21777     21778
     21771     21774     21777     21779     21771     21774     21777     21780
     21772     21771     21774     21775     21772     21771     21774     21776
     21772     21771     21774     21777     21773     21771     21774     21775
     21773     21771     21774     21776     21773     21771     21774     21777
     21774     21777     21780     21781     21774     21777     21780     21782
     21774     21777     21780     21783     21775     21774     21777     21778
     21775     21774     21777     21779     21775     21774     21777     21780
     21776     21774     21777     21778     21776     21774     21777     21779
     21776     21774     21777     21780     21777     21780     21783     21784
     21777     21780     21783     21785     21777     21780     21783     21786
     21778     21777     21780     21781     21778     21777     21780     21782
     21778     21777     21780     21783     21779     21777     21780     21781
     21779     21777     21780     21782     21779     21777     21780     21783
     21780     21783     21786     21787     21780     21783     21786     21788
     21780     21783     21786     21789     21781     21780     21783     21784
     21781     21780     21783     21785     21781     21780     21783     21786
     21782     21780     21783     21784     21782     21780     21783     21785
     21782     21780     21783     21786     21783     21786     21789     21790
     21783     21786     21789     21791     21783     21786     21789     21792
     21784     21783     21786     21787     21784     21783     21786     21788
     21784     21783     21786     21789     21785     21783     21786     21787
     21785     21783     21786     21788     21785     21783     21786     21789
     21787     21786     21789     21790     21787     21786     21789     21791
     21787     21786     21789     21792     21788     21786     21789     21790
     21788     21786     21789     21791     21788     21786     21789     21792
     21793     21795     21798     21799     21793     21795     21798     21800
     21793     21795     21798     21801     21794     21793     21795     21796
     21794     21793     21795     21797     21794     21793     21795     21798
     21795     21798     21801     21802     21795     21798     21801     21803
     21795     21798     21801     21804     21796     21795     21798     21799
     21796     21795     21798     21800     21796     21795     21798     21801
     21797     21795     21798     21799     21797     21795     21798     21800
     21797     21795     21798     21801     21798     21801     21804     21805
     21798     21801     21804     21806     21798     21801     21804     21807
     21799     21798     21801     21802     21799     21798     21801     21803
     21799     21798     21801     21804     21800     21798     21801     21802
     21800     21798     21801     21803     21800     21798     21801     21804
     21801     21804     21807     21808     21801     21804     21807     21809
     21801     21804     21807     21810     21802     21801     21804     21805
     21802     21801     21804     21806     21802     21801     21804     21807
     21803     21801     21804     21805     21803     21801     21804     21806
     21803     21801     21804     21807     21804     21807     21810     21811
     21804     21807     21810     21812     21804     21807     21810     21813
     21805     21804     21807     21808     21805     21804     21807     21809
     21805     21804     21807     21810     21806     21804     21807     21808
     21806     21804     21807     21809     21806     21804     21807     21810
     21807     21810     21813     21814     21807     21810     21813     21815
     21807     21810     21813     21816     21808     21807     21810     21811
     21808     21807     21810     21812     21808     21807     21810     21813
     21809     21807     21810     21811     21809     21807     21810     21812
     21809     21807     21810     21813     21810     21813     21816     21817
     21810     21813     21816     21818     21811     21810     21813     21814
     21811     21810     21813     21815     21811     21810     21813     21816
     21812     21810     21813     21814     21812     21810     21813     21815
     21812     21810     21813     21816     21813     21816     21818     21819
     21813     21816     21818     21820     21814     21813     21816     21817
     21814     21813     21816     21818     21815     21813     21816     21817
     21815     21813     21816     21818     21816     21818     21820     21821
     21816     21818     21820     21822     21816     21818     21820     21823
     21817     21816     21818     21819     21817     21816     21818     21820
     21818     21820     21823     21824     21818     21820     21823     21825
     21818     21820     21823     21826     21819     21818     21820     21821
     21819     21818     21820     21822     21819     21818     21820     21823
     21820     21823     21826     21827     21820     21823     21826     21828
     21820     21823     21826     21829     21821     21820     21823     21824
     21821     21820     21823     21825     21821     21820     21823     21826
     21822     21820     21823     21824     21822     21820     21823     21825
     21822     21820     21823     21826     21823     21826     21829     21830
     21823     21826     21829     21831     21823     21826     21829     21832
     21824     21823     21826     21827     21824     21823     21826     21828
     21824     21823     21826     21829     21825     21823     21826     21827
     21825     21823     21826     21828     21825     21823     21826     21829
     21826     21829     21832     21833     21826     21829     21832     21834
     21826     21829     21832     21835     21827     21826     21829     21830
     21827     21826     21829     21831     21827     21826     21829     21832
     21828     21826     21829     21830     21828     21826     21829     21831
     21828     21826     21829     21832     21829     21832     21835     21836
     21829     21832     21835     21837     21829     21832     21835     21838
     21830     21829     21832     21833     21830     21829     21832     21834
     21830     21829     21832     21835     21831     21829     21832     21833
     21831     21829     21832     21834     21831     21829     21832     21835
     21832     21835     21838     21839     21832     21835     21838     21840
     21832     21835     21838     21841     21833     21832     21835     21836
     21833     21832     21835     21837     21833     21832     21835     21838
     21834     21832     21835     21836     21834     21832     21835     21837
     21834     21832     21835     21838     21835     21838     21841     21842
     21835     21838     21841     21843     21835     21838     21841     21844
     21836     21835     21838     21839     21836     21835     21838     21840
     21836     21835     21838     21841     21837     21835     21838     21839
     21837     21835     21838     21840     21837     21835     21838     21841
     21839     21838     21841     21842     21839     21838     21841     21843
     21839     21838     21841     21844     21840     21838     21841     21842
     21840     21838     21841     21843     21840     21838     21841     21844
     21845     21858     21861     21862     21845     21858     21861     21863
     21845     21858     21861     21868     21846     21845     21850     21851
     21846     21845     21850     21852     21846     21845     21850     21853
     21846     21845     21854     21855     21846     21845     21854     21856
     21846     21845     21854     21857     21846     21845     21858     21859
     21846     21845     21858     21860     21846     21845     21858     21861
     21847     21846     21845     21850     21847     21846     21845     21854
     21847     21846     21845     21858     21848     21846     21845     21850
     21848     21846     21845     21854     21848     21846     21845     21858
     21849     21846     21845     21850     21849     21846     21845     21854
     21849     21846     21845     21858     21850     21845     21854     21855
     21850     21845     21854     21856     21850     21845     21854     21857
     21850     21845     21858     21859     21850     21845     21858     21860
     21850     21845     21858     21861     21851     21850     21845     21854
     21851     21850     21845     21858     21852     21850     21845     21854
     21852     21850     21845     21858     21853     21850     21845     21854
     21853     21850     21845     21858     21854     21845     21858     21859
     21854     21845     21858     21860     21854     21845     21858     21861
     21855     21854     21845     21858     21856     21854     21845     21858
     21857     21854     21845     21858     21858     21861     21868     21864
     21859     21858     21861     21862     21859     21858     21861     21863
     21859     21858     21861     21868     21860     21858     21861     21862
     21860     21858     21861     21863     21860     21858     21861     21868
     21861     21868     21864     21865     21861     21868     21864     21866
     21861     21868     21864     21867     21862     21861     21868     21864
     21863     21861     21868     21864     21864     21867     21869     21870
     21864     21867     21869     21871     21864     21867     21869     21874
     21865     21864     21867     21869     21866     21864     21867     21869
     21867     21869     21874     21872     21867     21869     21874     21875
     21867     21869     21874     21876     21868     21864     21867     21869
     21869     21874     21872     21873     21869     21874     21872     21924
     21869     21874     21876     21877     21869     21874     21876     21878
     21869     21874     21876     21880     21870     21869     21874     21872
     21870     21869     21874     21875     21870     21869     21874     21876
     21871     21869     21874     21872     21871     21869     21874     21875
     21871     21869     21874     21876     21872     21874     21876     21877
     21872     21874     21876     21878     21872     21874     21876     21880
     21872     21924     21926     21927     21872     21924     21926     21928
     21872     21924     21926     21929     21873     21872     21874     21875
     21873     21872     21874     21876     21873     21872     21924     21925
     21873     21872     21924     21926     21874     21872     21924     21925
     21874     21872     21924     21926     21874     21876     21878     21879
     21874     21876     21880     21881     21874     21876     21880     21882
     21875     21874     21872     21924     21875     21874     21876     21877
     21875     21874     21876     21878     21875     21874     21876     21880
     21876     21874     21872     21924     21876     21880     21882     21883
     21876     21880     21882     21884     21877     21876     21878     21879
     21877     21876     21880     21881     21877     21876     21880     21882
     21878     21876     21880     21881     21878     21876     21880     21882
     21879     21878     21876     21880     21880     21882     21884     21885
     21880     21882     21884     21886     21880     21882     21884     21887
     21881     21880     21882     21883     21881     21880     21882     21884
     21882     21884     21887     21888     21882     21884     21887     21889
     21882     21884     21887     21890     21883     21882     21884     21885
     21883     21882     21884     21886     21883     21882     21884     21887
     21884     21887     21890     21891     21884     21887     21890     21892
     21884     21887     21890     21893     21885     21884     21887     21888
     21885     21884     21887     21889     21885     21884     21887     21890
     21886     21884     21887     21888     21886     21884     21887     21889
     21886     21884     21887     21890     21887     21890     21893     21894
     21887     21890     21893     21895     21887     21890     21893     21896
     21888     21887     21890     21891     21888     21887     21890     21892
     21888     21887     21890     21893     21889     21887     21890     21891
     21889     21887     21890     21892     21889     21887     21890     21893
     21890     21893     21896     21897     21890     21893     21896     21898
     21890     21893     21896     21899     21891     21890     21893     21894
     21891     21890     21893     21895     21891     21890     21893     21896
     21892     21890     21893     21894     21892     21890     21893     21895
     21892     21890     21893     21896     21893     21896     21899     21900
     21893     21896     21899     21901     21893     21896     21899     21902
     21894     21893     21896     21897     21894     21893     21896     21898
     21894     21893     21896     21899     21895     21893     21896     21897
     21895     21893     21896     21898     21895     21893     21896     21899
     21896     21899     21902     21903     21896     21899     21902     21904
     21896     21899     21902     21905     21897     21896     21899     21900
     21897     21896     21899     21901     21897     21896     21899     21902
     21898     21896     21899     21900     21898     21896     21899     21901
     21898     21896     21899     21902     21899     21902     21905     21906
     21899     21902     21905     21907     21899     21902     21905     21908
     21900     21899     21902     21903     21900     21899     21902     21904
     21900     21899     21902     21905     21901     21899     21902     21903
     21901     21899     21902     21904     21901     21899     21902     21905
     21902     21905     21908     21909     21902     21905     21908     21910
     21902     21905     21908     21911     21903     21902     21905     21906
     21903     21902     21905     21907     21903     21902     21905     21908
     21904     21902     21905     21906     21904     21902     21905     21907
     21904     21902     21905     21908     21905     21908     21911     21912
     21905     21908     21911     21913     21905     21908     21911     21914
     21906     21905     21908     21909     21906     21905     21908     21910
     21906     21905     21908     21911     21907     21905     21908     21909
     21907     21905     21908     21910     21907     21905     21908     21911
     21908     21911     21914     21915     21908     21911     21914     21916
     21908     21911     21914     21917     21909     21908     21911     21912
     21909     21908     21911     21913     21909     21908     21911     21914
     21910     21908     21911     21912     21910     21908     21911     21913
     21910     21908     21911     21914     21911     21914     21917     21918
     21911     21914     21917     21919     21911     21914     21917     21920
     21912     21911     21914     21915     21912     21911     21914     21916
     21912     21911     21914     21917     21913     21911     21914     21915
     21913     21911     21914     21916     21913     21911     21914     21917
     21914     21917     21920     21921     21914     21917     21920     21922
     21914     21917     21920     21923     21915     21914     21917     21918
     21915     21914     21917     21919     21915     21914     21917     21920
     21916     21914     21917     21918     21916     21914     21917     21919
     21916     21914     21917     21920     21918     21917     21920     21921
     21918     21917     21920     21922     21918     21917     21920     21923
     21919     21917     21920     21921     21919     21917     21920     21922
     21919     21917     21920     21923     21924     21926     21929     21930
     21924     21926     21929     21931     21924     21926     21929     21932
     21925     21924     21926     21927     21925     21924     21926     21928
     21925     21924     21926     21929     21926     21929     21932     21933
     21926     21929     21932     21934     21926     21929     21932     21935
     21927     21926     21929     21930     21927     21926     21929     21931
     21927     21926     21929     21932     21928     21926     21929     21930
     21928     21926     21929     21931     21928     21926     21929     21932
     21929     21932     21935     21936     21929     21932     21935     21937
     21929     21932     21935     21938     21930     21929     21932     21933
     21930     21929     21932     21934     21930     21929     21932     21935
     21931     21929     21932     21933     21931     21929     21932     21934
     21931     21929     21932     21935     21932     21935     21938     21939
     21932     21935     21938     21940     21932     21935     21938     21941
     21933     21932     21935     21936     21933     21932     21935     21937
     21933     21932     21935     21938     21934     21932     21935     21936
     21934     21932     21935     21937     21934     21932     21935     21938
     21935     21938     21941     21942     21935     21938     21941     21943
     21935     21938     21941     21944     21936     21935     21938     21939
     21936     21935     21938     21940     21936     21935     21938     21941
     21937     21935     21938     21939     21937     21935     21938     21940
     21937     21935     21938     21941     21938     21941     21944     21945
     21938     21941     21944     21946     21938     21941     21944     21947
     21939     21938     21941     21942     21939     21938     21941     21943
     21939     21938     21941     21944     21940     21938     21941     21942
     21940     21938     21941     21943     21940     21938     21941     21944
     21941     21944     21947     21948     21941     21944     21947     21949
     21942     21941     21944     21945     21942     21941     21944     21946
     21942     21941     21944     21947     21943     21941     21944     21945
     21943     21941     21944     21946     21943     21941     21944     21947
     21944     21947     21949     21950     21944     21947     21949     21951
     21945     21944     21947     21948     21945     21944     21947     21949
     21946     21944     21947     21948     21946     21944     21947     21949
     21947     21949     21951     21952     21947     21949     21951     21953
     21947     21949     21951     21954     21948     21947     21949     21950
     21948     21947     21949     21951     21949     21951     21954     21955
     21949     21951     21954     21956     21949     21951     21954     21957
     21950     21949     21951     21952     21950     21949     21951     21953
     21950     21949     21951     21954     21951     21954     21957     21958
     21951     21954     21957     21959     21951     21954     21957     21960
     21952     21951     21954     21955     21952     21951     21954     21956
     21952     21951     21954     21957     21953     21951     21954     21955
     21953     21951     21954     21956     21953     21951     21954     21957
     21954     21957     21960     21961     21954     21957     21960     21962
     21954     21957     21960     21963     21955     21954     21957     21958
     21955     21954     21957     21959     21955     21954     21957     21960
     21956     21954     21957     21958     21956     21954     21957     21959
     21956     21954     21957     21960     21957     21960     21963     21964
     21957     21960     21963     21965     21957     21960     21963     21966
     21958     21957     21960     21961     21958     21957     21960     21962
     21958     21957     21960     21963     21959     21957     21960     21961
     21959     21957     21960     21962     21959     21957     21960     21963
     21960     21963     21966     21967     21960     21963     21966     21968
     21960     21963     21966     21969     21961     21960     21963     21964
     21961     21960     21963     21965     21961     21960     21963     21966
     21962     21960     21963     21964     21962     21960     21963     21965
     21962     21960     21963     21966     21963     21966     21969     21970
     21963     21966     21969     21971     21963     21966     21969     21972
     21964     21963     21966     21967     21964     21963     21966     21968
     21964     21963     21966     21969     21965     21963     21966     21967
     21965     21963     21966     21968     21965     21963     21966     21969
     21966     21969     21972     21973     21966     21969     21972     21974
     21966     21969     21972     21975     21967     21966     21969     21970
     21967     21966     21969     21971     21967     21966     21969     21972
     21968     21966     21969     21970     21968     21966     21969     21971
     21968     21966     21969     21972     21970     21969     21972     21973
     21970     21969     21972     21974     21970     21969     21972     21975
     21971     21969     21972     21973     21971     21969     21972     21974
     21971     21969     21972     21975     21976     21977     21992     21993
     21976     21977     21992     21994     21976     21977     21992     21998
     21977     21976     21980     21981     21977     21976     21980     21982
     21977     21976     21980     21983     21977     21976     21984     21985
     21977     21976     21984     21986     21977     21976     21984     21987
     21977     21976     21988     21989     21977     21976     21988     21990
     21977     21976     21988     21991     21977     21992     21998     21995
     21978     21977     21976     21980     21978     21977     21976     21984
     21978     21977     21976     21988     21978     21977     21992     21993
     21978     21977     21992     21994     21978     21977     21992     21998
     21979     21977     21976     21980     21979     21977     21976     21984
     21979     21977     21976     21988     21979     21977     21992     21993
     21979     21977     21992     21994     21979     21977     21992     21998
     21980     21976     21977     21992     21980     21976     21984     21985
     21980     21976     21984     21986     21980     21976     21984     21987
     21980     21976     21988     21989     21980     21976     21988     21990
     21980     21976     21988     21991     21981     21980     21976     21984
     21981     21980     21976     21988     21982     21980     21976     21984
     21982     21980     21976     21988     21983     21980     21976     21984
     21983     21980     21976     21988     21984     21976     21977     21992
     21984     21976     21988     21989     21984     21976     21988     21990
     21984     21976     21988     21991     21985     21984     21976     21988
     21986     21984     21976     21988     21987     21984     21976     21988
     21988     21976     21977     21992     21992     21998     21995     21996
     21992     21998     21995     21997     21992     21998     21995     21999
     21993     21992     21998     21995     21994     21992     21998     21995
     21995     21999     22000     22001     21995     21999     22000     22002
     21995     21999     22000     22003     21996     21995     21999     22000
     21997     21995     21999     22000     21998     21995     21999     22000
     21999     22000     22003     22004     21999     22000     22003     22005
     21999     22000     22003     22011     22000     22003     22005     22006
     22000     22003     22011     22012     22000     22003     22011     22013
     22000     22003     22011     22014     22001     22000     22003     22004
     22001     22000     22003     22005     22001     22000     22003     22011
     22002     22000     22003     22004     22002     22000     22003     22005
     22002     22000     22003     22011     22003     22005     22006     22007
     22003     22005     22006     22008     22003     22011     22014     22015
     22004     22003     22005     22006     22004     22003     22011     22012
     22004     22003     22011     22013     22004     22003     22011     22014
     22005     22003     22011     22012     22005     22003     22011     22013
     22005     22003     22011     22014     22005     22006     22008     22009
     22005     22006     22008     22010     22005     22006     22008     22020
     22006     22005     22003     22011     22006     22008     22020     22021
     22006     22008     22020     22022     22006     22008     22020     22023
     22007     22006     22008     22009     22007     22006     22008     22010
     22007     22006     22008     22020     22008     22020     22023     22024
     22008     22020     22023     22025     22008     22020     22023     22026
     22009     22008     22020     22021     22009     22008     22020     22022
     22009     22008     22020     22023     22010     22008     22020     22021
     22010     22008     22020     22022     22010     22008     22020     22023
     22011     22014     22015     22016     22011     22014     22015     22017
     22012     22011     22014     22015     22013     22011     22014     22015
     22014     22015     22017     22018     22014     22015     22017     22019
     22014     22015     22017     22067     22015     22017     22067     22068
     22015     22017     22067     22069     22015     22017     22067     22070
     22016     22015     22017     22018     22016     22015     22017     22019
     22016     22015     22017     22067     22017     22067     22070     22071
     22017     22067     22070     22072     22017     22067     22070     22073
     22018     22017     22067     22068     22018     22017     22067     22069
     22018     22017     22067     22070     22019     22017     22067     22068
     22019     22017     22067     22069     22019     22017     22067     22070
     22020     22023     22026     22027     22020     22023     22026     22028
     22021     22020     22023     22024     22021     22020     22023     22025
     22021     22020     22023     22026     22022     22020     22023     22024
     22022     22020     22023     22025     22022     22020     22023     22026
     22023     22026     22028     22029     22023     22026     22028     22030
     22024     22023     22026     22027     22024     22023     22026     22028
     22025     22023     22026     22027     22025     22023     22026     22028
     22026     22028     22030     22031     22026     22028     22030     22032
     22026     22028     22030     22033     22027     22026     22028     22029
     22027     22026     22028     22030     22028     22030     22033     22034
     22028     22030     22033     22035     22029     22028     22030     22031
     22029     22028     22030     22032     22029     22028     22030     22033
     22030     22033     22035     22036     22030     22033     22035     22037
     22031     22030     22033     22034     22031     22030     22033     22035
     22032     22030     22033     22034     22032     22030     22033     22035
     22033     22035     22037     22038     22033     22035     22037     22039
     22033     22035     22037     22040     22034     22033     22035     22036
     22034     22033     22035     22037     22035     22037     22040     22041
     22035     22037     22040     22042     22036     22035     22037     22038
     22036     22035     22037     22039     22036     22035     22037     22040
     22037     22040     22042     22043     22037     22040     22042     22044
     22038     22037     22040     22041     22038     22037     22040     22042
     22039     22037     22040     22041     22039     22037     22040     22042
     22040     22042     22044     22045     22040     22042     22044     22046
     22040     22042     22044     22047     22041     22040     22042     22043
     22041     22040     22042     22044     22042     22044     22047     22048
     22042     22044     22047     22049     22043     22042     22044     22045
     22043     22042     22044     22046     22043     22042     22044     22047
     22044     22047     22049     22050     22044     22047     22049     22051
     22045     22044     22047     22048     22045     22044     22047     22049
     22046     22044     22047     22048     22046     22044     22047     22049
     22047     22049     22051     22052     22047     22049     22051     22053
     22047     22049     22051     22054     22048     22047     22049     22050
     22048     22047     22049     22051     22049     22051     22054     22055
     22049     22051     22054     22056     22049     22051     22054     22057
     22050     22049     22051     22052     22050     22049     22051     22053
     22050     22049     22051     22054     22051     22054     22057     22058
     22051     22054     22057     22059     22051     22054     22057     22060
     22052     22051     22054     22055     22052     22051     22054     22056
     22052     22051     22054     22057     22053     22051     22054     22055
     22053     22051     22054     22056     22053     22051     22054     22057
     22054     22057     22060     22061     22054     22057     22060     22062
     22054     22057     22060     22063     22055     22054     22057     22058
     22055     22054     22057     22059     22055     22054     22057     22060
     22056     22054     22057     22058     22056     22054     22057     22059
     22056     22054     22057     22060     22057     22060     22063     22064
     22057     22060     22063     22065     22057     22060     22063     22066
     22058     22057     22060     22061     22058     22057     22060     22062
     22058     22057     22060     22063     22059     22057     22060     22061
     22059     22057     22060     22062     22059     22057     22060     22063
     22061     22060     22063     22064     22061     22060     22063     22065
     22061     22060     22063     22066     22062     22060     22063     22064
     22062     22060     22063     22065     22062     22060     22063     22066
     22067     22070     22073     22074     22067     22070     22073     22075
     22067     22070     22073     22076     22068     22067     22070     22071
     22068     22067     22070     22072     22068     22067     22070     22073
     22069     22067     22070     22071     22069     22067     22070     22072
     22069     22067     22070     22073     22070     22073     22076     22077
     22070     22073     22076     22078     22070     22073     22076     22079
     22071     22070     22073     22074     22071     22070     22073     22075
     22071     22070     22073     22076     22072     22070     22073     22074
     22072     22070     22073     22075     22072     22070     22073     22076
     22073     22076     22079     22080     22073     22076     22079     22081
     22073     22076     22079     22082     22074     22073     22076     22077
     22074     22073     22076     22078     22074     22073     22076     22079
     22075     22073     22076     22077     22075     22073     22076     22078
     22075     22073     22076     22079     22076     22079     22082     22083
     22076     22079     22082     22084     22076     22079     22082     22085
     22077     22076     22079     22080     22077     22076     22079     22081
     22077     22076     22079     22082     22078     22076     22079     22080
     22078     22076     22079     22081     22078     22076     22079     22082
     22079     22082     22085     22086     22079     22082     22085     22087
     22079     22082     22085     22088     22080     22079     22082     22083
     22080     22079     22082     22084     22080     22079     22082     22085
     22081     22079     22082     22083     22081     22079     22082     22084
     22081     22079     22082     22085     22082     22085     22088     22089
     22082     22085     22088     22090     22082     22085     22088     22091
     22083     22082     22085     22086     22083     22082     22085     22087
     22083     22082     22085     22088     22084     22082     22085     22086
     22084     22082     22085     22087     22084     22082     22085     22088
     22085     22088     22091     22092     22085     22088     22091     22093
     22085     22088     22091     22094     22086     22085     22088     22089
     22086     22085     22088     22090     22086     22085     22088     22091
     22087     22085     22088     22089     22087     22085     22088     22090
     22087     22085     22088     22091     22088     22091     22094     22095
     22088     22091     22094     22096     22088     22091     22094     22097
     22089     22088     22091     22092     22089     22088     22091     22093
     22089     22088     22091     22094     22090     22088     22091     22092
     22090     22088     22091     22093     22090     22088     22091     22094
     22091     22094     22097     22098     22091     22094     22097     22099
     22091     22094     22097     22100     22092     22091     22094     22095
     22092     22091     22094     22096     22092     22091     22094     22097
     22093     22091     22094     22095     22093     22091     22094     22096
     22093     22091     22094     22097     22094     22097     22100     22101
     22094     22097     22100     22102     22094     22097     22100     22103
     22095     22094     22097     22098     22095     22094     22097     22099
     22095     22094     22097     22100     22096     22094     22097     22098
     22096     22094     22097     22099     22096     22094     22097     22100
     22097     22100     22103     22104     22097     22100     22103     22105
     22097     22100     22103     22106     22098     22097     22100     22101
     22098     22097     22100     22102     22098     22097     22100     22103
     22099     22097     22100     22101     22099     22097     22100     22102
     22099     22097     22100     22103     22100     22103     22106     22107
     22100     22103     22106     22108     22100     22103     22106     22109
     22101     22100     22103     22104     22101     22100     22103     22105
     22101     22100     22103     22106     22102     22100     22103     22104
     22102     22100     22103     22105     22102     22100     22103     22106
     22103     22106     22109     22110     22103     22106     22109     22111
     22103     22106     22109     22112     22104     22103     22106     22107
     22104     22103     22106     22108     22104     22103     22106     22109
     22105     22103     22106     22107     22105     22103     22106     22108
     22105     22103     22106     22109     22106     22109     22112     22113
     22106     22109     22112     22114     22106     22109     22112     22115
     22107     22106     22109     22110     22107     22106     22109     22111
     22107     22106     22109     22112     22108     22106     22109     22110
     22108     22106     22109     22111     22108     22106     22109     22112
     22110     22109     22112     22113     22110     22109     22112     22114
     22110     22109     22112     22115     22111     22109     22112     22113
     22111     22109     22112     22114     22111     22109     22112     22115
     22116     22120     22123     22124     22116     22120     22123     22154
     22116     22162     22159     22154     22116     22162     22159     22160
     22116     22162     22159     22161     22117     22116     22118     22119
     22117     22116     22120     22121     22117     22116     22120     22122
     22117     22116     22120     22123     22117     22116     22162     22159
     22117     22116     22162     22163     22117     22116     22162     22164
     22118     22116     22120     22121     22118     22116     22120     22122
     22118     22116     22120     22123     22118     22116     22162     22159
     22118     22116     22162     22163     22118     22116     22162     22164
     22119     22118     22116     22120     22119     22118     22116     22162
     22120     22116     22162     22159     22120     22116     22162     22163
     22120     22116     22162     22164     22120     22123     22124     22125
     22120     22123     22124     22126     22120     22123     22154     22152
     22120     22123     22154     22155     22120     22123     22154     22159
     22121     22120     22116     22162     22121     22120     22123     22124
     22121     22120     22123     22154     22122     22120     22116     22162
     22122     22120     22123     22124     22122     22120     22123     22154
     22123     22120     22116     22162     22123     22124     22126     22127
     22123     22124     22126     22128     22123     22124     22126     22129
     22123     22154     22152     22129     22123     22154     22152     22149
     22123     22154     22152     22153     22123     22154     22155     22156
     22123     22154     22155     22157     22123     22154     22155     22158
     22123     22154     22159     22160     22123     22154     22159     22161
     22123     22154     22159     22162     22124     22123     22154     22152
     22124     22123     22154     22155     22124     22123     22154     22159
     22124     22126     22129     22130     22124     22126     22129     22131
     22124     22126     22129     22152     22125     22124     22123     22154
     22125     22124     22126     22127     22125     22124     22126     22128
     22125     22124     22126     22129     22126     22124     22123     22154
     22126     22129     22131     22132     22126     22129     22131     22133
     22126     22129     22131     22141     22126     22129     22152     22149
     22126     22129     22152     22153     22126     22129     22152     22154
     22127     22126     22129     22130     22127     22126     22129     22131
     22127     22126     22129     22152     22128     22126     22129     22130
     22128     22126     22129     22131     22128     22126     22129     22152
     22129     22131     22133     22134     22129     22131     22133     22135
     22129     22131     22133     22136     22129     22131     22141     22139
     22129     22131     22141     22142     22129     22131     22141     22146
     22129     22152     22149     22146     22129     22152     22149     22150
     22129     22152     22149     22151     22129     22152     22154     22155
     22129     22152     22154     22159     22130     22129     22131     22132
     22130     22129     22131     22133     22130     22129     22131     22141
     22130     22129     22152     22149     22130     22129     22152     22153
     22130     22129     22152     22154     22131     22129     22152     22149
     22131     22129     22152     22153     22131     22129     22152     22154
     22131     22133     22136     22137     22131     22133     22136     22138
     22131     22133     22136     22139     22131     22141     22139     22136
     22131     22141     22139     22140     22131     22141     22139     22165
     22131     22141     22142     22143     22131     22141     22142     22144
     22131     22141     22142     22145     22131     22141     22146     22147
     22131     22141     22146     22148     22131     22141     22146     22149
     22132     22131     22129     22152     22132     22131     22133     22134
     22132     22131     22133     22135     22132     22131     22133     22136
     22132     22131     22141     22139     22132     22131     22141     22142
     22132     22131     22141     22146     22133     22131     22129     22152
     22133     22131     22141     22139     22133     22131     22141     22142
     22133     22131     22141     22146     22133     22136     22139     22140
     22133     22136     22139     22141     22133     22136     22139     22165
     22134     22133     22131     22141     22134     22133     22136     22137
     22134     22133     22136     22138     22134     22133     22136     22139
     22135     22133     22131     22141     22135     22133     22136     22137
     22135     22133     22136     22138     22135     22133     22136     22139
     22136     22133     22131     22141     22136     22139     22141     22142
     22136     22139     22141     22146     22136     22139     22165     22166
     22136     22139     22165     22167     22136     22139     22165     22171
     22137     22136     22139     22140     22137     22136     22139     22141
     22137     22136     22139     22165     22138     22136     22139     22140
     22138     22136     22139     22141     22138     22136     22139     22165
     22139     22141     22142     22143     22139     22141     22142     22144
     22139     22141     22142     22145     22139     22141     22146     22147
     22139     22141     22146     22148     22139     22141     22146     22149
     22139     22165     22167     22168     22139     22165     22167     22169
     22139     22165     22167     22170     22139     22165     22171     22172
     22139     22165     22171     22173     22139     22165     22171     22174
     22140     22139     22141     22142     22140     22139     22141     22146
     22140     22139     22165     22166     22140     22139     22165     22167
     22140     22139     22165     22171     22141     22131     22129     22152
     22141     22139     22165     22166     22141     22139     22165     22167
     22141     22139     22165     22171     22141     22146     22149     22150
     22141     22146     22149     22151     22141     22146     22149     22152
     22142     22141     22139     22165     22142     22141     22146     22147
     22142     22141     22146     22148     22142     22141     22146     22149
     22143     22142     22141     22146     22144     22142     22141     22146
     22145     22142     22141     22146     22146     22141     22139     22165
     22146     22149     22152     22153     22146     22149     22152     22154
     22147     22146     22149     22150     22147     22146     22149     22151
     22147     22146     22149     22152     22148     22146     22149     22150
     22148     22146     22149     22151     22148     22146     22149     22152
     22149     22152     22154     22155     22149     22152     22154     22159
     22150     22149     22152     22153     22150     22149     22152     22154
     22151     22149     22152     22153     22151     22149     22152     22154
     22152     22154     22155     22156     22152     22154     22155     22157
     22152     22154     22155     22158     22152     22154     22159     22160
     22152     22154     22159     22161     22152     22154     22159     22162
     22153     22152     22154     22155     22153     22152     22154     22159
     22154     22159     22162     22163     22154     22159     22162     22164
     22155     22154     22159     22160     22155     22154     22159     22161
     22155     22154     22159     22162     22156     22155     22154     22159
     22157     22155     22154     22159     22158     22155     22154     22159
     22160     22159     22162     22163     22160     22159     22162     22164
     22161     22159     22162     22163     22161     22159     22162     22164
     22165     22171     22174     22175     22165     22171     22174     22176
     22165     22171     22174     22177     22166     22165     22167     22168
     22166     22165     22167     22169     22166     22165     22167     22170
     22166     22165     22171     22172     22166     22165     22171     22173
     22166     22165     22171     22174     22167     22165     22171     22172
     22167     22165     22171     22173     22167     22165     22171     22174
     22168     22167     22165     22171     22169     22167     22165     22171
     22170     22167     22165     22171     22171     22174     22177     22178
     22171     22174     22177     22179     22171     22174     22177     22180
     22172     22171     22174     22175     22172     22171     22174     22176
     22172     22171     22174     22177     22173     22171     22174     22175
     22173     22171     22174     22176     22173     22171     22174     22177
     22174     22177     22180     22181     22174     22177     22180     22182
     22174     22177     22180     22186     22175     22174     22177     22178
     22175     22174     22177     22179     22175     22174     22177     22180
     22176     22174     22177     22178     22176     22174     22177     22179
     22176     22174     22177     22180     22177     22180     22182     22183
     22177     22180     22182     22184     22177     22180     22182     22185
     22177     22180     22186     22187     22177     22180     22186     22188
     22177     22180     22186     22189     22178     22177     22180     22181
     22178     22177     22180     22182     22178     22177     22180     22186
     22179     22177     22180     22181     22179     22177     22180     22182
     22179     22177     22180     22186     22181     22180     22182     22183
     22181     22180     22182     22184     22181     22180     22182     22185
     22181     22180     22186     22187     22181     22180     22186     22188
     22181     22180     22186     22189     22182     22180     22186     22187
     22182     22180     22186     22188     22182     22180     22186     22189
     22183     22182     22180     22186     22184     22182     22180     22186
     22185     22182     22180     22186     22190     22194     22197     22198
     22190     22194     22197     22199     22190     22194     22197     22203
     22191     22190     22194     22195     22191     22190     22194     22196
     22191     22190     22194     22197     22192     22190     22194     22195
     22192     22190     22194     22196     22192     22190     22194     22197
     22193     22190     22194     22195     22193     22190     22194     22196
     22193     22190     22194     22197     22194     22197     22203     22200
     22195     22194     22197     22198     22195     22194     22197     22199
     22195     22194     22197     22203     22196     22194     22197     22198
     22196     22194     22197     22199     22196     22194     22197     22203
     22197     22203     22200     22201     22197     22203     22200     22202
     22197     22203     22200     22204     22198     22197     22203     22200
     22199     22197     22203     22200     22200     22204     22205     22206
     22200     22204     22205     22207     22200     22204     22205     22208
     22201     22200     22204     22205     22202     22200     22204     22205
     22203     22200     22204     22205     22204     22205     22208     22209
     22204     22205     22208     22210     22204     22205     22208     22216
     22205     22208     22210     22211     22205     22208     22216     22217
     22205     22208     22216     22218     22205     22208     22216     22219
     22206     22205     22208     22209     22206     22205     22208     22210
     22206     22205     22208     22216     22207     22205     22208     22209
     22207     22205     22208     22210     22207     22205     22208     22216
     22208     22210     22211     22212     22208     22210     22211     22213
     22208     22216     22219     22220     22209     22208     22210     22211
     22209     22208     22216     22217     22209     22208     22216     22218
     22209     22208     22216     22219     22210     22208     22216     22217
     22210     22208     22216     22218     22210     22208     22216     22219
     22210     22211     22213     22214     22210     22211     22213     22215
     22210     22211     22213     22225     22211     22210     22208     22216
     22211     22213     22225     22226     22211     22213     22225     22227
     22211     22213     22225     22228     22212     22211     22213     22214
     22212     22211     22213     22215     22212     22211     22213     22225
     22213     22225     22228     22229     22213     22225     22228     22230
     22213     22225     22228     22231     22214     22213     22225     22226
     22214     22213     22225     22227     22214     22213     22225     22228
     22215     22213     22225     22226     22215     22213     22225     22227
     22215     22213     22225     22228     22216     22219     22220     22221
     22216     22219     22220     22222     22217     22216     22219     22220
     22218     22216     22219     22220     22219     22220     22222     22223
     22219     22220     22222     22224     22219     22220     22222     22272
     22220     22222     22272     22273     22220     22222     22272     22274
     22220     22222     22272     22275     22221     22220     22222     22223
     22221     22220     22222     22224     22221     22220     22222     22272
     22222     22272     22275     22276     22222     22272     22275     22277
     22222     22272     22275     22278     22223     22222     22272     22273
     22223     22222     22272     22274     22223     22222     22272     22275
     22224     22222     22272     22273     22224     22222     22272     22274
     22224     22222     22272     22275     22225     22228     22231     22232
     22225     22228     22231     22233     22225     22228     22231     22234
     22226     22225     22228     22229     22226     22225     22228     22230
     22226     22225     22228     22231     22227     22225     22228     22229
     22227     22225     22228     22230     22227     22225     22228     22231
     22228     22231     22234     22235     22228     22231     22234     22236
     22228     22231     22234     22237     22229     22228     22231     22232
     22229     22228     22231     22233     22229     22228     22231     22234
     22230     22228     22231     22232     22230     22228     22231     22233
     22230     22228     22231     22234     22231     22234     22237     22238
     22231     22234     22237     22239     22231     22234     22237     22240
     22232     22231     22234     22235     22232     22231     22234     22236
     22232     22231     22234     22237     22233     22231     22234     22235
     22233     22231     22234     22236     22233     22231     22234     22237
     22234     22237     22240     22241     22234     22237     22240     22242
     22234     22237     22240     22243     22235     22234     22237     22238
     22235     22234     22237     22239     22235     22234     22237     22240
     22236     22234     22237     22238     22236     22234     22237     22239
     22236     22234     22237     22240     22237     22240     22243     22244
     22237     22240     22243     22245     22238     22237     22240     22241
     22238     22237     22240     22242     22238     22237     22240     22243
     22239     22237     22240     22241     22239     22237     22240     22242
     22239     22237     22240     22243     22240     22243     22245     22246
     22240     22243     22245     22247     22241     22240     22243     22244
     22241     22240     22243     22245     22242     22240     22243     22244
     22242     22240     22243     22245     22243     22245     22247     22248
     22243     22245     22247     22249     22243     22245     22247     22250
     22244     22243     22245     22246     22244     22243     22245     22247
     22245     22247     22250     22251     22245     22247     22250     22252
     22245     22247     22250     22253     22246     22245     22247     22248
     22246     22245     22247     22249     22246     22245     22247     22250
     22247     22250     22253     22254     22247     22250     22253     22255
     22247     22250     22253     22256     22248     22247     22250     22251
     22248     22247     22250     22252     22248     22247     22250     22253
     22249     22247     22250     22251     22249     22247     22250     22252
     22249     22247     22250     22253     22250     22253     22256     22257
     22250     22253     22256     22258     22250     22253     22256     22259
     22251     22250     22253     22254     22251     22250     22253     22255
     22251     22250     22253     22256     22252     22250     22253     22254
     22252     22250     22253     22255     22252     22250     22253     22256
     22253     22256     22259     22260     22253     22256     22259     22261
     22253     22256     22259     22262     22254     22253     22256     22257
     22254     22253     22256     22258     22254     22253     22256     22259
     22255     22253     22256     22257     22255     22253     22256     22258
     22255     22253     22256     22259     22256     22259     22262     22263
     22256     22259     22262     22264     22256     22259     22262     22265
     22257     22256     22259     22260     22257     22256     22259     22261
     22257     22256     22259     22262     22258     22256     22259     22260
     22258     22256     22259     22261     22258     22256     22259     22262
     22259     22262     22265     22266     22259     22262     22265     22267
     22259     22262     22265     22268     22260     22259     22262     22263
     22260     22259     22262     22264     22260     22259     22262     22265
     22261     22259     22262     22263     22261     22259     22262     22264
     22261     22259     22262     22265     22262     22265     22268     22269
     22262     22265     22268     22270     22262     22265     22268     22271
     22263     22262     22265     22266     22263     22262     22265     22267
     22263     22262     22265     22268     22264     22262     22265     22266
     22264     22262     22265     22267     22264     22262     22265     22268
     22266     22265     22268     22269     22266     22265     22268     22270
     22266     22265     22268     22271     22267     22265     22268     22269
     22267     22265     22268     22270     22267     22265     22268     22271
     22272     22275     22278     22279     22272     22275     22278     22280
     22272     22275     22278     22281     22273     22272     22275     22276
     22273     22272     22275     22277     22273     22272     22275     22278
     22274     22272     22275     22276     22274     22272     22275     22277
     22274     22272     22275     22278     22275     22278     22281     22282
     22275     22278     22281     22283     22275     22278     22281     22284
     22276     22275     22278     22279     22276     22275     22278     22280
     22276     22275     22278     22281     22277     22275     22278     22279
     22277     22275     22278     22280     22277     22275     22278     22281
     22278     22281     22284     22285     22278     22281     22284     22286
     22278     22281     22284     22287     22279     22278     22281     22282
     22279     22278     22281     22283     22279     22278     22281     22284
     22280     22278     22281     22282     22280     22278     22281     22283
     22280     22278     22281     22284     22281     22284     22287     22288
     22281     22284     22287     22289     22281     22284     22287     22290
     22282     22281     22284     22285     22282     22281     22284     22286
     22282     22281     22284     22287     22283     22281     22284     22285
     22283     22281     22284     22286     22283     22281     22284     22287
     22284     22287     22290     22291     22284     22287     22290     22292
     22284     22287     22290     22293     22285     22284     22287     22288
     22285     22284     22287     22289     22285     22284     22287     22290
     22286     22284     22287     22288     22286     22284     22287     22289
     22286     22284     22287     22290     22287     22290     22293     22294
     22287     22290     22293     22295     22287     22290     22293     22296
     22288     22287     22290     22291     22288     22287     22290     22292
     22288     22287     22290     22293     22289     22287     22290     22291
     22289     22287     22290     22292     22289     22287     22290     22293
     22290     22293     22296     22297     22290     22293     22296     22298
     22290     22293     22296     22299     22291     22290     22293     22294
     22291     22290     22293     22295     22291     22290     22293     22296
     22292     22290     22293     22294     22292     22290     22293     22295
     22292     22290     22293     22296     22293     22296     22299     22300
     22293     22296     22299     22301     22293     22296     22299     22302
     22294     22293     22296     22297     22294     22293     22296     22298
     22294     22293     22296     22299     22295     22293     22296     22297
     22295     22293     22296     22298     22295     22293     22296     22299
     22296     22299     22302     22303     22296     22299     22302     22304
     22296     22299     22302     22305     22297     22296     22299     22300
     22297     22296     22299     22301     22297     22296     22299     22302
     22298     22296     22299     22300     22298     22296     22299     22301
     22298     22296     22299     22302     22299     22302     22305     22306
     22299     22302     22305     22307     22299     22302     22305     22308
     22300     22299     22302     22303     22300     22299     22302     22304
     22300     22299     22302     22305     22301     22299     22302     22303
     22301     22299     22302     22304     22301     22299     22302     22305
     22302     22305     22308     22309     22302     22305     22308     22310
     22302     22305     22308     22311     22303     22302     22305     22306
     22303     22302     22305     22307     22303     22302     22305     22308
     22304     22302     22305     22306     22304     22302     22305     22307
     22304     22302     22305     22308     22305     22308     22311     22312
     22305     22308     22311     22313     22305     22308     22311     22314
     22306     22305     22308     22309     22306     22305     22308     22310
     22306     22305     22308     22311     22307     22305     22308     22309
     22307     22305     22308     22310     22307     22305     22308     22311
     22308     22311     22314     22315     22308     22311     22314     22316
     22308     22311     22314     22317     22309     22308     22311     22312
     22309     22308     22311     22313     22309     22308     22311     22314
     22310     22308     22311     22312     22310     22308     22311     22313
     22310     22308     22311     22314     22311     22314     22317     22318
     22311     22314     22317     22319     22311     22314     22317     22320
     22312     22311     22314     22315     22312     22311     22314     22316
     22312     22311     22314     22317     22313     22311     22314     22315
     22313     22311     22314     22316     22313     22311     22314     22317
     22315     22314     22317     22318     22315     22314     22317     22319
     22315     22314     22317     22320     22316     22314     22317     22318
     22316     22314     22317     22319     22316     22314     22317     22320

       272 !NIMPHI: impropers
       105       104       107       106       114       113       116       115
       243       242       245       244       252       251       254       253
       377       376       379       378       386       385       388       387
       564       566       512       565       512       564       514       513
       769       771       717       770       717       769       719       718
       974       976       922       975       922       974       924       923
      1105      1107      1053      1106      1053      1105      1055      1054
      1335      1334      1337      1336      1344      1343      1346      1345
      1475      1474      1477      1476      1484      1483      1486      1485
      1613      1612      1615      1614      1622      1621      1624      1623
      1738      1737      1740      1739      1747      1746      1749      1748
      1869      1868      1871      1870      1878      1877      1880      1879
      2132      2134      2080      2133      2080      2132      2082      2081
      2429      2428      2431      2430      2438      2437      2440      2439
      2643      2642      2645      2644      2652      2651      2654      2653
      2860      2859      2862      2861      2869      2868      2871      2870
      3065      3064      3067      3066      3074      3073      3076      3075
      3254      3256      3202      3255      3202      3254      3204      3203
      3459      3461      3407      3460      3407      3459      3409      3408
      3541      3540      3543      3542      3550      3549      3552      3551
      3820      3819      3822      3821      3829      3828      3831      3830
      3951      3950      3953      3952      3960      3959      3962      3961
      4158      4157      4160      4159      4167      4166      4169      4168
      4298      4297      4300      4299      4307      4306      4309      4308
      4436      4435      4438      4437      4445      4444      4447      4446
      4576      4575      4578      4577      4585      4584      4587      4586
      5003      5002      5005      5004      5012      5011      5014      5013
      5134      5133      5136      5135      5143      5142      5145      5144
      5422      5421      5424      5423      5431      5430      5433      5432
      5562      5561      5564      5563      5571      5570      5573      5572
      5893      5895      5841      5894      5841      5893      5843      5842
      5975      5974      5977      5976      5984      5983      5986      5985
      6164      6166      6112      6165      6112      6164      6114      6113
      6237      6236      6239      6238      6246      6245      6248      6247
      6426      6428      6374      6427      6374      6426      6376      6375
      6557      6559      6505      6558      6505      6557      6507      6506
      6630      6629      6632      6631      6639      6638      6641      6640
      6761      6760      6763      6762      6770      6769      6772      6771
      6894      6893      6896      6895      6903      6902      6905      6904
      7083      7085      7031      7084      7031      7083      7033      7032
      7156      7155      7158      7157      7165      7164      7167      7166
      7296      7295      7298      7297      7305      7304      7307      7306
      7421      7420      7423      7422      7430      7429      7432      7431
      7635      7634      7637      7636      7644      7643      7646      7645
      7766      7765      7768      7767      7775      7774      7777      7776
      7897      7896      7899      7898      7906      7905      7908      7907
      8114      8113      8116      8115      8123      8122      8125      8124
      8303      8305      8251      8304      8251      8303      8253      8252
      8376      8375      8378      8377      8385      8384      8387      8386
      8516      8515      8518      8517      8525      8524      8527      8526
      8645      8644      8647      8646      8654      8653      8656      8655
      8778      8777      8780      8779      8787      8786      8789      8788
      8911      8910      8913      8912      8920      8919      8922      8921
      9051      9050      9053      9052      9060      9059      9062      9061
      9240      9242      9188      9241      9188      9240      9190      9189
      9313      9312      9315      9314      9322      9321      9324      9323
      9502      9504      9450      9503      9450      9502      9452      9451
      9649      9648      9651      9650      9658      9657      9660      9659
      9838      9840      9786      9839      9786      9838      9788      9787
      9920      9919      9922      9921      9929      9928      9931      9930
     10107     10109     10055     10108     10055     10107     10057     10056
     10254     10253     10256     10255     10263     10262     10265     10264
     10443     10445     10391     10444     10391     10443     10393     10392
     10518     10517     10520     10519     10527     10526     10529     10528
     10658     10657     10660     10659     10667     10666     10669     10668
     10789     10788     10791     10790     10798     10797     10800     10799
     10920     10919     10922     10921     10929     10928     10931     10930
     11051     11050     11053     11052     11060     11059     11062     11061
     11388     11390     11336     11389     11336     11388     11338     11337
     11470     11469     11472     11471     11479     11478     11481     11480
     11601     11600     11603     11602     11610     11609     11612     11611
     11790     11792     11738     11791     11738     11790     11740     11739
     11863     11862     11865     11864     11872     11871     11874     11873
     12052     12054     12000     12053     12000     12052     12002     12001
     12208     12207     12210     12209     12217     12216     12219     12218
     12342     12341     12344     12343     12351     12350     12353     12352
     12531     12533     12479     12532     12479     12531     12481     12480
     12616     12615     12618     12617     12625     12624     12627     12626
     12805     12807     12753     12806     12753     12805     12755     12754
     12887     12886     12889     12888     12896     12895     12898     12897
     13021     13020     13023     13022     13030     13029     13032     13031
     13383     13382     13385     13384     13392     13391     13394     13393
     13794     13796     13742     13795     13742     13794     13744     13743
     13869     13868     13871     13870     13878     13877     13880     13879
     14000     13999     14002     14001     14009     14008     14011     14010
     14205     14204     14207     14206     14214     14213     14216     14215
     14567     14566     14569     14568     14576     14575     14578     14577
     14694     14693     14696     14695     14703     14702     14705     14704
     14883     14885     14831     14884     14831     14883     14833     14832
     14965     14964     14967     14966     14974     14973     14976     14975
     15094     15093     15096     15095     15103     15102     15105     15104
     15301     15300     15303     15302     15310     15309     15312     15311
     15432     15431     15434     15433     15441     15440     15443     15442
     15769     15771     15717     15770     15717     15769     15719     15718
     15842     15841     15844     15843     15851     15850     15853     15852
     15982     15981     15984     15983     15991     15990     15993     15992
     16120     16119     16122     16121     16129     16128     16131     16130
     16307     16309     16255     16308     16255     16307     16257     16256
     16382     16381     16384     16383     16391     16390     16393     16392
     16522     16521     16524     16523     16531     16530     16533     16532
     16653     16652     16655     16654     16662     16661     16664     16663
     17006     17005     17008     17007     17015     17014     17017     17016
     17146     17145     17148     17147     17155     17154     17157     17156
     17349     17348     17351     17350     17358     17357     17360     17359
     17554     17553     17556     17555     17563     17562     17565     17564
     17685     17684     17687     17686     17694     17693     17696     17695
     17825     17824     17827     17826     17834     17833     17836     17835
     17965     17964     17967     17966     17974     17973     17976     17975
     18154     18156     18102     18155     18102     18154     18104     18103
     18227     18226     18229     18228     18236     18235     18238     18237
     18444     18443     18446     18445     18453     18452     18455     18454
     18633     18635     18581     18634     18581     18633     18583     18582
     18715     18714     18717     18716     18724     18723     18726     18725
     18920     18919     18922     18921     18929     18928     18931     18930
     19109     19111     19057     19110     19057     19109     19059     19058
     19182     19181     19184     19183     19191     19190     19193     19192
     19315     19314     19317     19316     19324     19323     19326     19325
     19446     19445     19448     19447     19455     19454     19457     19456
     19635     19637     19583     19636     19583     19635     19585     19584
     19717     19716     19719     19718     19726     19725     19728     19727
     19929     19928     19931     19930     19938     19937     19940     19939
     20137     20136     20139     20138     20146     20145     20148     20147
     20268     20267     20270     20269     20277     20276     20279     20278
     20457     20459     20405     20458     20405     20457     20407     20406
     20530     20529     20532     20531     20539     20538     20541     20540
     20670     20669     20672     20671     20679     20678     20681     20680
     20873     20872     20875     20874     20882     20881     20884     20883
     21004     21003     21006     21005     21013     21012     21015     21014
     21209     21208     21211     21210     21218     21217     21220     21219
     21398     21400     21346     21399     21346     21398     21348     21347
     21473     21472     21475     21474     21482     21481     21484     21483
     21662     21664     21610     21663     21610     21662     21612     21611
     21793     21795     21741     21794     21741     21793     21743     21742
     21924     21926     21872     21925     21872     21924     21874     21873
     22006     22005     22008     22007     22015     22014     22017     22016
     22211     22210     22213     22212     22220     22219     22222     22221

         0 !NDON: donors


         0 !NACC: acceptors


         0 !NNB

         0         0         0         0         0         0         0         0
         0         0         0         0         0         0         0         0
         0         0         0         0         0         0         0         0
         0         0         0         0         0         0         0         0
         0         0         0         0         0         0         0         0
         0         0         0         0         0         0         0         0
         0         0         0         0         0         0         0         0
         0         0         0         0         0         0         0         0
         0         0         0         0         0         0         0         0
         0         0         0         0         0         0         0         0
         0         0         0         0         0         0         0         0
         0         0         0         0         0         0         0         0
         0         0         0         0         0         0         0         0
         0         0         0         0         0         0         0         0
         0         0         0         0         0         0         0         0
         0         0         0         0         0         0         0         0
         0         0         0         0         0         0         0         0
         0         0         0         0         0         0         0         0
         0         0         0         0         0         0         0         0
         0         0         0         0         0         0         0         0
         0         0         0         0         0         0         0         0
         0         0         0         0         0         0         0         0
         0         0         0         0         0         0         0         0
         0         0         0         0         0         0         0         0
         0         0         0         0         0         0         0         0
         0         0         0         0         0         0         0         0
         0         0         0         0         0         0         0         0
         0         0         0         0         0         0         0         0
         0         0         0         0         0         0         0         0
         0         0         0         0         0         0         0         0
         0         0         0         0         0         0         0         0
         0         0         0         0         0         0         0         0
         0         0         0         0         0         0         0         0
         0         0         0         0         0         0         0         0
         0         0         0         0         0         0         0         0
         0         0         0         0         0         0         0         0
         0         0         0         0         0         0         0         0
         0         0         0         0         0         0         0         0
         0         0         0         0         0         0         0         0
         0         0         0         0         0         0         0         0
         0         0         0         0         0         0         0         0
         0         0         0         0         0         0         0         0
         0         0         0         0         0         0         0         0
         0         0         0         0         0         0         0         0
         0         0         0         0         0         0         0         0
         0         0         0         0         0         0         0         0
         0         0         0         0         0         0         0         0
         0         0         0         0         0         0         0         0
         0         0         0         0         0         0         0         0
         0         0         0         0         0         0         0         0
         0         0         0         0         0         0         0         0
         0         0         0         0         0         0         0         0
         0         0         0         0         0         0         0         0
         0         0         0         0         0         0         0         0
         0         0         0         0         0         0         0         0
         0         0         0         0         0         0         0         0
         0         0         0         0         0         0         0         0
         0         0         0         0         0         0         0         0
         0         0         0         0         0         0         0         0
         0         0         0         0         0         0         0         0
         0         0         0         0         0         0         0         0
         0         0         0         0         0         0         0         0
         0         0         0         0         0         0         0         0
         0         0         0         0         0         0         0         0
         0         0         0         0         0         0         0         0
         0         0         0         0         0         0         0         0
         0         0         0         0         0         0         0         0
         0         0         0         0         0         0         0         0
         0         0         0         0         0         0         0         0
         0         0         0         0         0         0         0         0
         0         0         0         0         0         0         0         0
         0         0         0         0         0         0         0         0
         0         0         0         0         0         0         0         0
         0         0         0         0         0         0         0         0
         0         0         0         0         0         0         0         0
         0         0         0         0         0         0         0         0
         0         0         0         0         0         0         0         0
         0         0         0         0         0         0         0         0
         0         0         0         0         0         0         0         0
         0         0         0         0         0         0         0         0
         0         0         0         0         0         0         0         0
         0         0         0         0         0         0         0         0
         0         0         0         0         0         0         0         0
         0         0         0         0         0         0         0         0
         0         0         0         0         0         0         0         0
         0         0         0         0         0         0         0         0
         0         0         0         0         0         0         0         0
         0         0         0         0         0         0         0         0
         0         0         0         0         0         0         0         0
         0         0         0         0         0         0         0         0
         0         0         0         0         0         0         0         0
         0         0         0         0         0         0         0         0
         0         0         0         0         0         0         0         0
         0         0         0         0         0         0         0         0
         0         0         0         0         0         0         0         0
         0         0         0         0         0         0         0         0
         0         0         0         0         0         0         0         0
         0         0         0         0         0         0         0         0
         0         0         0         0         0         0         0         0
         0         0         0         0         0         0         0         0
         0         0         0         0         0         0         0         0
         0         0         0         0         0         0         0         0
         0         0         0         0         0         0         0         0
         0         0         0         0         0         0         0         0
         0         0         0         0         0         0         0         0
         0         0         0         0         0         0         0         0
         0         0         0         0         0         0         0         0
         0         0         0         0         0         0         0         0
         0         0         0         0         0         0         0         0
         0         0         0         0         0         0         0         0
         0         0         0         0         0         0         0         0
         0         0         0         0         0         0         0         0
         0         0         0         0         0         0         0         0
         0         0         0         0         0         0         0         0
         0         0         0         0         0         0         0         0
         0         0         0         0         0         0         0         0
         0         0         0         0         0         0         0         0
         0         0         0         0         0         0         0         0
         0         0         0         0         0         0         0         0
         0         0         0         0         0         0         0         0
         0         0         0         0         0         0         0         0
         0         0         0         0         0         0         0         0
         0         0         0         0         0         0         0         0
         0         0         0         0         0         0         0         0
         0         0         0         0         0         0         0         0
         0         0         0         0         0         0         0         0
         0         0         0         0         0         0         0         0
         0         0         0         0         0         0         0         0
         0         0         0         0         0         0         0         0
         0         0         0         0         0         0         0         0
         0         0         0         0         0         0         0         0
         0         0         0         0         0         0         0         0
         0         0         0         0         0         0         0         0
         0         0         0         0         0         0         0         0
         0         0         0         0         0         0         0         0
         0         0         0         0         0         0         0         0
         0         0         0         0         0         0         0         0
         0         0         0         0         0         0         0         0
         0         0         0         0         0         0         0         0
         0         0         0         0         0         0         0         0
         0         0         0         0         0         0         0         0
         0         0         0         0         0         0         0         0
         0         0         0         0         0         0         0         0
         0         0         0         0         0         0         0         0
         0         0         0         0         0         0         0         0
         0         0         0         0         0         0         0         0
         0         0         0         0         0         0         0         0
         0         0         0         0         0         0         0         0
         0         0         0         0         0         0         0         0
         0         0         0         0         0         0         0         0
         0         0         0         0         0         0         0         0
         0         0         0         0         0         0         0         0
         0         0         0         0         0         0         0         0
         0         0         0         0         0         0         0         0
         0         0         0         0         0         0         0         0
         0         0         0         0         0         0         0         0
         0         0         0         0         0         0         0         0
         0         0         0         0         0         0         0         0
         0         0         0         0         0         0         0         0
         0         0         0         0         0         0         0         0
         0         0         0         0         0         0         0         0
         0         0         0         0         0         0         0         0
         0         0         0         0         0         0         0         0
         0         0         0         0         0         0         0         0
         0         0         0         0         0         0         0         0
         0         0         0         0         0         0         0         0
         0         0         0         0         0         0         0         0
         0         0         0         0         0         0         0         0
         0         0         0         0         0         0         0         0
         0         0         0         0         0         0         0         0
         0         0         0         0         0         0         0         0
         0         0         0         0         0         0         0         0
         0         0         0         0         0         0         0         0
         0         0         0         0         0         0         0         0
         0         0         0         0         0         0         0         0
         0         0         0         0         0         0         0         0
         0         0         0         0         0         0         0         0
         0         0         0         0         0         0         0         0
         0         0         0         0         0         0         0         0
         0         0         0         0         0         0         0         0
         0         0         0         0         0         0         0         0
         0         0         0         0         0         0         0         0
         0         0         0         0         0         0         0         0
         0         0         0         0         0         0         0         0
         0         0         0         0         0         0         0         0
         0         0         0         0         0         0         0         0
         0         0         0         0         0         0         0         0
         0         0         0         0         0         0         0         0
         0         0         0         0         0         0         0         0
         0         0         0         0         0         0         0         0
         0         0         0         0         0         0         0         0
         0         0         0         0         0         0         0         0
         0         0         0         0         0         0         0         0
         0         0         0         0         0         0         0         0
         0         0         0         0         0         0         0         0
         0         0         0         0         0         0         0         0
         0         0         0         0         0         0         0         0
         0         0         0         0         0         0         0         0
         0         0         0         0         0         0         0         0
         0         0         0         0         0         0         0         0
         0         0         0         0         0         0         0         0
         0         0         0         0         0         0         0         0
         0         0         0         0         0         0         0         0
         0         0         0         0         0         0         0         0
         0         0         0         0         0         0         0         0
         0         0         0         0         0         0         0         0
         0         0         0         0         0         0         0         0
         0         0         0         0         0         0         0         0
         0         0         0         0         0         0         0         0
         0         0         0         0         0         0         0         0
         0         0         0         0         0         0         0         0
         0         0         0         0         0         0         0         0
         0         0         0         0         0         0         0         0
         0         0         0         0         0         0         0         0
         0         0         0         0         0         0         0         0
         0         0         0         0         0         0         0         0
         0         0         0         0         0         0         0         0
         0         0         0         0         0         0         0         0
         0         0         0         0         0         0         0         0
         0         0         0         0         0         0         0         0
         0         0         0         0         0         0         0         0
         0         0         0         0         0         0         0         0
         0         0         0         0         0         0         0         0
         0         0         0         0         0         0         0         0
         0         0         0         0         0         0         0         0
         0         0         0         0         0         0         0         0
         0         0         0         0         0         0         0         0
         0         0         0         0         0         0         0         0
         0         0         0         0         0         0         0         0
         0         0         0         0         0         0         0         0
         0         0         0         0         0         0         0         0
         0         0         0         0         0         0         0         0
         0         0         0         0         0         0         0         0
         0         0         0         0         0         0         0         0
         0         0         0         0         0         0         0         0
         0         0         0         0         0         0         0         0
         0         0         0         0         0         0         0         0
         0         0         0         0         0         0         0         0
         0         0         0         0         0         0         0         0
         0         0         0         0         0         0         0         0
         0         0         0         0         0         0         0         0
         0         0         0         0         0         0         0         0
         0         0         0         0         0         0         0         0
         0         0         0         0         0         0         0         0
         0         0         0         0         0         0         0         0
         0         0         0         0         0         0         0         0
         0         0         0         0         0         0         0         0
         0         0         0         0         0         0         0         0
         0         0         0         0         0         0         0         0
         0         0         0         0         0         0         0         0
         0         0         0         0         0         0         0         0
         0         0         0         0         0         0         0         0
         0         0         0         0         0         0         0         0
         0         0         0         0         0         0         0         0
         0         0         0         0         0         0         0         0
         0         0         0         0         0         0         0         0
         0         0         0         0         0         0         0         0
         0         0         0         0         0         0         0         0
         0         0         0         0         0         0         0         0
         0         0         0         0         0         0         0         0
         0         0         0         0         0         0         0         0
         0         0         0         0         0         0         0         0
         0         0         0         0         0         0         0         0
         0         0         0         0         0         0         0         0
         0         0         0         0         0         0         0         0
         0         0         0         0         0         0         0         0
         0         0         0         0         0         0         0         0
         0         0         0         0         0         0         0         0
         0         0         0         0         0         0         0         0
         0         0         0         0         0         0         0         0
         0         0         0         0         0         0         0         0
         0         0         0         0         0         0         0         0
         0         0         0         0         0         0         0         0
         0         0         0         0         0         0         0         0
         0         0         0         0         0         0         0         0
         0         0         0         0         0         0         0         0
         0         0         0         0         0         0         0         0
         0         0         0         0         0         0         0         0
         0         0         0         0         0         0         0         0
         0         0         0         0         0         0         0         0
         0         0         0         0         0         0         0         0
         0         0         0         0         0         0         0         0
         0         0         0         0         0         0         0         0
         0         0         0         0         0         0         0         0
         0         0         0         0         0         0         0         0
         0         0         0         0         0         0         0         0
         0         0         0         0         0         0         0         0
         0         0         0         0         0         0         0         0
         0         0         0         0         0         0         0         0
         0         0         0         0         0         0         0         0
         0         0         0         0         0         0         0         0
         0         0         0         0         0         0         0         0
         0         0         0         0         0         0         0         0
         0         0         0         0         0         0         0         0
         0         0         0         0         0         0         0         0
         0         0         0         0         0         0         0         0
         0         0         0         0         0         0         0         0
         0         0         0         0         0         0         0         0
         0         0         0         0         0         0         0         0
         0         0         0         0         0         0         0         0
         0         0         0         0         0         0         0         0
         0         0         0         0         0         0         0         0
         0         0         0         0         0         0         0         0
         0         0         0         0         0         0         0         0
         0         0         0         0         0         0         0         0
         0         0         0         0         0         0         0         0
         0         0         0         0         0         0         0         0
         0         0         0         0         0         0         0         0
         0         0         0         0         0         0         0         0
         0         0         0         0         0         0         0         0
         0         0         0         0         0         0         0         0
         0         0         0         0         0         0         0         0
         0         0         0         0         0         0         0         0
         0         0         0         0         0         0         0         0
         0         0         0         0         0         0         0         0
         0         0         0         0         0         0         0         0
         0         0         0         0         0         0         0         0
         0         0         0         0         0         0         0         0
         0         0         0         0         0         0         0         0
         0         0         0         0         0         0         0         0
         0         0         0         0         0         0         0         0
         0         0         0         0         0         0         0         0
         0         0         0         0         0         0         0         0
         0         0         0         0         0         0         0         0
         0         0         0         0         0         0         0         0
         0         0         0         0         0         0         0         0
         0         0         0         0         0         0         0         0
         0         0         0         0         0         0         0         0
         0         0         0         0         0         0         0         0
         0         0         0         0         0         0         0         0
         0         0         0         0         0         0         0         0
         0         0         0         0         0         0         0         0
         0         0         0         0         0         0         0         0
         0         0         0         0         0         0         0         0
         0         0         0         0         0         0         0         0
         0         0         0         0         0         0         0         0
         0         0         0         0         0         0         0         0
         0         0         0         0         0         0         0         0
         0         0         0         0         0         0         0         0
         0         0         0         0         0         0         0         0
         0         0         0         0         0         0         0         0
         0         0         0         0         0         0         0         0
         0         0         0         0         0         0         0         0
         0         0         0         0         0         0         0         0
         0         0         0         0         0         0         0         0
         0         0         0         0         0         0         0         0
         0         0         0         0         0         0         0         0
         0         0         0         0         0         0         0         0
         0         0         0         0         0         0         0         0
         0         0         0         0         0         0         0         0
         0         0         0         0         0         0         0         0
         0         0         0         0         0         0         0         0
         0         0         0         0         0         0         0         0
         0         0         0         0         0         0         0         0
         0         0         0         0         0         0         0         0
         0         0         0         0         0         0         0         0
         0         0         0         0         0         0         0         0
         0         0         0         0         0         0         0         0
         0         0         0         0         0         0         0         0
         0         0         0         0         0         0         0         0
         0         0         0         0         0         0         0         0
         0         0         0         0         0         0         0         0
         0         0         0         0         0         0         0         0
         0         0         0         0         0         0         0         0
         0         0         0         0         0         0         0         0
         0         0         0         0         0         0         0         0
         0         0         0         0         0         0         0         0
         0         0         0         0         0         0         0         0
         0         0         0         0         0         0         0         0
         0         0         0         0         0         0         0         0
         0         0         0         0         0         0         0         0
         0         0         0         0         0         0         0         0
         0         0         0         0         0         0         0         0
         0         0         0         0         0         0         0         0
         0         0         0         0         0         0         0         0
         0         0         0         0         0         0         0         0
         0         0         0         0         0         0         0         0
         0         0         0         0         0         0         0         0
         0         0         0         0         0         0         0         0
         0         0         0         0         0         0         0         0
         0         0         0         0         0         0         0         0
         0         0         0         0         0         0         0         0
         0         0         0         0         0         0         0         0
         0         0         0         0         0         0         0         0
         0         0         0         0         0         0         0         0
         0         0         0         0         0         0         0         0
         0         0         0         0         0         0         0         0
         0         0         0         0         0         0         0         0
         0         0         0         0         0         0         0         0
         0         0         0         0         0         0         0         0
         0         0         0         0         0         0         0         0
         0         0         0         0         0         0         0         0
         0         0         0         0         0         0         0         0
         0         0         0         0         0         0         0         0
         0         0         0         0         0         0         0         0
         0         0         0         0         0         0         0         0
         0         0         0         0         0         0         0         0
         0         0         0         0         0         0         0         0
         0         0         0         0         0         0         0         0
         0         0         0         0         0         0         0         0
         0         0         0         0         0         0         0         0
         0         0         0         0         0         0         0         0
         0         0         0         0         0         0         0         0
         0         0         0         0         0         0         0         0
         0         0         0         0         0         0         0         0
         0         0         0         0         0         0         0         0
         0         0         0         0         0         0         0         0
         0         0         0         0         0         0         0         0
         0         0         0         0         0         0         0         0
         0         0         0         0         0         0         0         0
         0         0         0         0         0         0         0         0
         0         0         0         0         0         0         0         0
         0         0         0         0         0         0         0         0
         0         0         0         0         0         0         0         0
         0         0         0         0         0         0         0         0
         0         0         0         0         0         0         0         0
         0         0         0         0         0         0         0         0
         0         0         0         0         0         0         0         0
         0         0         0         0         0         0         0         0
         0         0         0         0         0         0         0         0
         0         0         0         0         0         0         0         0
         0         0         0         0         0         0         0         0
         0         0         0         0         0         0         0         0
         0         0         0         0         0         0         0         0
         0         0         0         0         0         0         0         0
         0         0         0         0         0         0         0         0
         0         0         0         0         0         0         0         0
         0         0         0         0         0         0         0         0
         0         0         0         0         0         0         0         0
         0         0         0         0         0         0         0         0
         0         0         0         0         0         0         0         0
         0         0         0         0         0         0         0         0
         0         0         0         0         0         0         0         0
         0         0         0         0         0         0         0         0
         0         0         0         0         0         0         0         0
         0         0         0         0         0         0         0         0
         0         0         0         0         0         0         0         0
         0         0         0         0         0         0         0         0
         0         0         0         0         0         0         0         0
         0         0         0         0         0         0         0         0
         0         0         0         0         0         0         0         0
         0         0         0         0         0         0         0         0
         0         0         0         0         0         0         0         0
         0         0         0         0         0         0         0         0
         0         0         0         0         0         0         0         0
         0         0         0         0         0         0         0         0
         0         0         0         0         0         0         0         0
         0         0         0         0         0         0         0         0
         0         0         0         0         0         0         0         0
         0         0         0         0         0         0         0         0
         0         0         0         0         0         0         0         0
         0         0         0         0         0         0         0         0
         0         0         0         0         0         0         0         0
         0         0         0         0         0         0         0         0
         0         0         0         0         0         0         0         0
         0         0         0         0         0         0         0         0
         0         0         0         0         0         0         0         0
         0         0         0         0         0         0         0         0
         0         0         0         0         0         0         0         0
         0         0         0         0         0         0         0         0
         0         0         0         0         0         0         0         0
         0         0         0         0         0         0         0         0
         0         0         0         0         0         0         0         0
         0         0         0         0         0         0         0         0
         0         0         0         0         0         0         0         0
         0         0         0         0         0         0         0         0
         0         0         0         0         0         0         0         0
         0         0         0         0         0         0         0         0
         0         0         0         0         0         0         0         0
         0         0         0         0         0         0         0         0
         0         0         0         0         0         0         0         0
         0         0         0         0         0         0         0         0
         0         0         0         0         0         0         0         0
         0         0         0         0         0         0         0         0
         0         0         0         0         0         0         0         0
         0         0         0         0         0         0         0         0
         0         0         0         0         0         0         0         0
         0         0         0         0         0         0         0         0
         0         0         0         0         0         0         0         0
         0         0         0         0         0         0         0         0
         0         0         0         0         0         0         0         0
         0         0         0         0         0         0         0         0
         0         0         0         0         0         0         0         0
         0         0         0         0         0         0         0         0
         0         0         0         0         0         0         0         0
         0         0         0         0         0         0         0         0
         0         0         0         0         0         0         0         0
         0         0         0         0         0         0         0         0
         0         0         0         0         0         0         0         0
         0         0         0         0         0         0         0         0
         0         0         0         0         0         0         0         0
         0         0         0         0         0         0         0         0
         0         0         0         0         0         0         0         0
         0         0         0         0         0         0         0         0
         0         0         0         0         0         0         0         0
         0         0         0         0         0         0         0         0
         0         0         0         0         0         0         0         0
         0         0         0         0         0         0         0         0
         0         0         0         0         0         0         0         0
         0         0         0         0         0         0         0         0
         0         0         0         0         0         0         0         0
         0         0         0         0         0         0         0         0
         0         0         0         0         0         0         0         0
         0         0         0         0         0         0         0         0
         0         0         0         0         0         0         0         0
         0         0         0         0         0         0         0         0
         0         0         0         0         0         0         0         0
         0         0         0         0         0         0         0         0
         0         0         0         0         0         0         0         0
         0         0         0         0         0         0         0         0
         0         0         0         0         0         0         0         0
         0         0         0         0         0         0         0         0
         0         0         0         0         0         0         0         0
         0         0         0         0         0         0         0         0
         0         0         0         0         0         0         0         0
         0         0         0         0         0         0         0         0
         0         0         0         0         0         0         0         0
         0         0         0         0         0         0         0         0
         0         0         0         0         0         0         0         0
         0         0         0         0         0         0         0         0
         0         0         0         0         0         0         0         0
         0         0         0         0         0         0         0         0
         0         0         0         0         0         0         0         0
         0         0         0         0         0         0         0         0
         0         0         0         0         0         0         0         0
         0         0         0         0         0         0         0         0
         0         0         0         0         0         0         0         0
         0         0         0         0         0         0         0         0
         0         0         0         0         0         0         0         0
         0         0         0         0         0         0         0         0
         0         0         0         0         0         0         0         0
         0         0         0         0         0         0         0         0
         0         0         0         0         0         0         0         0
         0         0         0         0         0         0         0         0
         0         0         0         0         0         0         0         0
         0         0         0         0         0         0         0         0
         0         0         0         0         0         0         0         0
         0         0         0         0         0         0         0         0
         0         0         0         0         0         0         0         0
         0         0         0         0         0         0         0         0
         0         0         0         0         0         0         0         0
         0         0         0         0         0         0         0         0
         0         0         0         0         0         0         0         0
         0         0         0         0         0         0         0         0
         0         0         0         0         0         0         0         0
         0         0         0         0         0         0         0         0
         0         0         0         0         0         0         0         0
         0         0         0         0         0         0         0         0
         0         0         0         0         0         0         0         0
         0         0         0         0         0         0         0         0
         0         0         0         0         0         0         0         0
         0         0         0         0         0         0         0         0
         0         0         0         0         0         0         0         0
         0         0         0         0         0         0         0         0
         0         0         0         0         0         0         0         0
         0         0         0         0         0         0         0         0
         0         0         0         0         0         0         0         0
         0         0         0         0         0         0         0         0
         0         0         0         0         0         0         0         0
         0         0         0         0         0         0         0         0
         0         0         0         0         0         0         0         0
         0         0         0         0         0         0         0         0
         0         0         0         0         0         0         0         0
         0         0         0         0         0         0         0         0
         0         0         0         0         0         0         0         0
         0         0         0         0         0         0         0         0
         0         0         0         0         0         0         0         0
         0         0         0         0         0         0         0         0
         0         0         0         0         0         0         0         0
         0         0         0         0         0         0         0         0
         0         0         0         0         0         0         0         0
         0         0         0         0         0         0         0         0
         0         0         0         0         0         0         0         0
         0         0         0         0         0         0         0         0
         0         0         0         0         0         0         0         0
         0         0         0         0         0         0         0         0
         0         0         0         0         0         0         0         0
         0         0         0         0         0         0         0         0
         0         0         0         0         0         0         0         0
         0         0         0         0         0         0         0         0
         0         0         0         0         0         0         0         0
         0         0         0         0         0         0         0         0
         0         0         0         0         0         0         0         0
         0         0         0         0         0         0         0         0
         0         0         0         0         0         0         0         0
         0         0         0         0         0         0         0         0
         0         0         0         0         0         0         0         0
         0         0         0         0         0         0         0         0
         0         0         0         0         0         0         0         0
         0         0         0         0         0         0         0         0
         0         0         0         0         0         0         0         0
         0         0         0         0         0         0         0         0
         0         0         0         0         0         0         0         0
         0         0         0         0         0         0         0         0
         0         0         0         0         0         0         0         0
         0         0         0         0         0         0         0         0
         0         0         0         0         0         0         0         0
         0         0         0         0         0         0         0         0
         0         0         0         0         0         0         0         0
         0         0         0         0         0         0         0         0
         0         0         0         0         0         0         0         0
         0         0         0         0         0         0         0         0
         0         0         0         0         0         0         0         0
         0         0         0         0         0         0         0         0
         0         0         0         0         0         0         0         0
         0         0         0         0         0         0         0         0
         0         0         0         0         0         0         0         0
         0         0         0         0         0         0         0         0
         0         0         0         0         0         0         0         0
         0         0         0         0         0         0         0         0
         0         0         0         0         0         0         0         0
         0         0         0         0         0         0         0         0
         0         0         0         0         0         0         0         0
         0         0         0         0         0         0         0         0
         0         0         0         0         0         0         0         0
         0         0         0         0         0         0         0         0
         0         0         0         0         0         0         0         0
         0         0         0         0         0         0         0         0
         0         0         0         0         0         0         0         0
         0         0         0         0         0         0         0         0
         0         0         0         0         0         0         0         0
         0         0         0         0         0         0         0         0
         0         0         0         0         0         0         0         0
         0         0         0         0         0         0         0         0
         0         0         0         0         0         0         0         0
         0         0         0         0         0         0         0         0
         0         0         0         0         0         0         0         0
         0         0         0         0         0         0         0         0
         0         0         0         0         0         0         0         0
         0         0         0         0         0         0         0         0
         0         0         0         0         0         0         0         0
         0         0         0         0         0         0         0         0
         0         0         0         0         0         0         0         0
         0         0         0         0         0         0         0         0
         0         0         0         0         0         0         0         0
         0         0         0         0         0         0         0         0
         0         0         0         0         0         0         0         0
         0         0         0         0         0         0         0         0
         0         0         0         0         0         0         0         0
         0         0         0         0         0         0         0         0
         0         0         0         0         0         0         0         0
         0         0         0         0         0         0         0         0
         0         0         0         0         0         0         0         0
         0         0         0         0         0         0         0         0
         0         0         0         0         0         0         0         0
         0         0         0         0         0         0         0         0
         0         0         0         0         0         0         0         0
         0         0         0         0         0         0         0         0
         0         0         0         0         0         0         0         0
         0         0         0         0         0         0         0         0
         0         0         0         0         0         0         0         0
         0         0         0         0         0         0         0         0
         0         0         0         0         0         0         0         0
         0         0         0         0         0         0         0         0
         0         0         0         0         0         0         0         0
         0         0         0         0         0         0         0         0
         0         0         0         0         0         0         0         0
         0         0         0         0         0         0         0         0
         0         0         0         0         0         0         0         0
         0         0         0         0         0         0         0         0
         0         0         0         0         0         0         0         0
         0         0         0         0         0         0         0         0
         0         0         0         0         0         0         0         0
         0         0         0         0         0         0         0         0
         0         0         0         0         0         0         0         0
         0         0         0         0         0         0         0         0
         0         0         0         0         0         0         0         0
         0         0         0         0         0         0         0         0
         0         0         0         0         0         0         0         0
         0         0         0         0         0         0         0         0
         0         0         0         0         0         0         0         0
         0         0         0         0         0         0         0         0
         0         0         0         0         0         0         0         0
         0         0         0         0         0         0         0         0
         0         0         0         0         0         0         0         0
         0         0         0         0         0         0         0         0
         0         0         0         0         0         0         0         0
         0         0         0         0         0         0         0         0
         0         0         0         0         0         0         0         0
         0         0         0         0         0         0         0         0
         0         0         0         0         0         0         0         0
         0         0         0         0         0         0         0         0
         0         0         0         0         0         0         0         0
         0         0         0         0         0         0         0         0
         0         0         0         0         0         0         0         0
         0         0         0         0         0         0         0         0
         0         0         0         0         0         0         0         0
         0         0         0         0         0         0         0         0
         0         0         0         0         0         0         0         0
         0         0         0         0         0         0         0         0
         0         0         0         0         0         0         0         0
         0         0         0         0         0         0         0         0
         0         0         0         0         0         0         0         0
         0         0         0         0         0         0         0         0
         0         0         0         0         0         0         0         0
         0         0         0         0         0         0         0         0
         0         0         0         0         0         0         0         0
         0         0         0         0         0         0         0         0
         0         0         0         0         0         0         0         0
         0         0         0         0         0         0         0         0
         0         0         0         0         0         0         0         0
         0         0         0         0         0         0         0         0
         0         0         0         0         0         0         0         0
         0         0         0         0         0         0         0         0
         0         0         0         0         0         0         0         0
         0         0         0         0         0         0         0         0
         0         0         0         0         0         0         0         0
         0         0         0         0         0         0         0         0
         0         0         0         0         0         0         0         0
         0         0         0         0         0         0         0         0
         0         0         0         0         0         0         0         0
         0         0         0         0         0         0         0         0
         0         0         0         0         0         0         0         0
         0         0         0         0         0         0         0         0
         0         0         0         0         0         0         0         0
         0         0         0         0         0         0         0         0
         0         0         0         0         0         0         0         0
         0         0         0         0         0         0         0         0
         0         0         0         0         0         0         0         0
         0         0         0         0         0         0         0         0
         0         0         0         0         0         0         0         0
         0         0         0         0         0         0         0         0
         0         0         0         0         0         0         0         0
         0         0         0         0         0         0         0         0
         0         0         0         0         0         0         0         0
         0         0         0         0         0         0         0         0
         0         0         0         0         0         0         0         0
         0         0         0         0         0         0         0         0
         0         0         0         0         0         0         0         0
         0         0         0         0         0         0         0         0
         0         0         0         0         0         0         0         0
         0         0         0         0         0         0         0         0
         0         0         0         0         0         0         0         0
         0         0         0         0         0         0         0         0
         0         0         0         0         0         0         0         0
         0         0         0         0         0         0         0         0
         0         0         0         0         0         0         0         0
         0         0         0         0         0         0         0         0
         0         0         0         0         0         0         0         0
         0         0         0         0         0         0         0         0
         0         0         0         0         0         0         0         0
         0         0         0         0         0         0         0         0
         0         0         0         0         0         0         0         0
         0         0         0         0         0         0         0         0
         0         0         0         0         0         0         0         0
         0         0         0         0         0         0         0         0
         0         0         0         0         0         0         0         0
         0         0         0         0         0         0         0         0
         0         0         0         0         0         0         0         0
         0         0         0         0         0         0         0         0
         0         0         0         0         0         0         0         0
         0         0         0         0         0         0         0         0
         0         0         0         0         0         0         0         0
         0         0         0         0         0         0         0         0
         0         0         0         0         0         0         0         0
         0         0         0         0         0         0         0         0
         0         0         0         0         0         0         0         0
         0         0         0         0         0         0         0         0
         0         0         0         0         0         0         0         0
         0         0         0         0         0         0         0         0
         0         0         0         0         0         0         0         0
         0         0         0         0         0         0         0         0
         0         0         0         0         0         0         0         0
         0         0         0         0         0         0         0         0
         0         0         0         0         0         0         0         0
         0         0         0         0         0         0         0         0
         0         0         0         0         0         0         0         0
         0         0         0         0         0         0         0         0
         0         0         0         0         0         0         0         0
         0         0         0         0         0         0         0         0
         0         0         0         0         0         0         0         0
         0         0         0         0         0         0         0         0
         0         0         0         0         0         0         0         0
         0         0         0         0         0         0         0         0
         0         0         0         0         0         0         0         0
         0         0         0         0         0         0         0         0
         0         0         0         0         0         0         0         0
         0         0         0         0         0         0         0         0
         0         0         0         0         0         0         0         0
         0         0         0         0         0         0         0         0
         0         0         0         0         0         0         0         0
         0         0         0         0         0         0         0         0
         0         0         0         0         0         0         0         0
         0         0         0         0         0         0         0         0
         0         0         0         0         0         0         0         0
         0         0         0         0         0         0         0         0
         0         0         0         0         0         0         0         0
         0         0         0         0         0         0         0         0
         0         0         0         0         0         0         0         0
         0         0         0         0         0         0         0         0
         0         0         0         0         0         0         0         0
         0         0         0         0         0         0         0         0
         0         0         0         0         0         0         0         0
         0         0         0         0         0         0         0         0
         0         0         0         0         0         0         0         0
         0         0         0         0         0         0         0         0
         0         0         0         0         0         0         0         0
         0         0         0         0         0         0         0         0
         0         0         0         0         0         0         0         0
         0         0         0         0         0         0         0         0
         0         0         0         0         0         0         0         0
         0         0         0         0         0         0         0         0
         0         0         0         0         0         0         0         0
         0         0         0         0         0         0         0         0
         0         0         0         0         0         0         0         0
         0         0         0         0         0         0         0         0
         0         0         0         0         0         0         0         0
         0         0         0         0         0         0         0         0
         0         0         0         0         0         0         0         0
         0         0         0         0         0         0         0         0
         0         0         0         0         0         0         0         0
         0         0         0         0         0         0         0         0
         0         0         0         0         0         0         0         0
         0         0         0         0         0         0         0         0
         0         0         0         0         0         0         0         0
         0         0         0         0         0         0         0         0
         0         0         0         0         0         0         0         0
         0         0         0         0         0         0         0         0
         0         0         0         0         0         0         0         0
         0         0         0         0         0         0         0         0
         0         0         0         0         0         0         0         0
         0         0         0         0         0         0         0         0
         0         0         0         0         0         0         0         0
         0         0         0         0         0         0         0         0
         0         0         0         0         0         0         0         0
         0         0         0         0         0         0         0         0
         0         0         0         0         0         0         0         0
         0         0         0         0         0         0         0         0
         0         0         0         0         0         0         0         0
         0         0         0         0         0         0         0         0
         0         0         0         0         0         0         0         0
         0         0         0         0         0         0         0         0
         0         0         0         0         0         0         0         0
         0         0         0         0         0         0         0         0
         0         0         0         0         0         0         0         0
         0         0         0         0         0         0         0         0
         0         0         0         0         0         0         0         0
         0         0         0         0         0         0         0         0
         0         0         0         0         0         0         0         0
         0         0         0         0         0         0         0         0
         0         0         0         0         0         0         0         0
         0         0         0         0         0         0         0         0
         0         0         0         0         0         0         0         0
         0         0         0         0         0         0         0         0
         0         0         0         0         0         0         0         0
         0         0         0         0         0         0         0         0
         0         0         0         0         0         0         0         0
         0         0         0         0         0         0         0         0
         0         0         0         0         0         0         0         0
         0         0         0         0         0         0         0         0
         0         0         0         0         0         0         0         0
         0         0         0         0         0         0         0         0
         0         0         0         0         0         0         0         0
         0         0         0         0         0         0         0         0
         0         0         0         0         0         0         0         0
         0         0         0         0         0         0         0         0
         0         0         0         0         0         0         0         0
         0         0         0         0         0         0         0         0
         0         0         0         0         0         0         0         0
         0         0         0         0         0         0         0         0
         0         0         0         0         0         0         0         0
         0         0         0         0         0         0         0         0
         0         0         0         0         0         0         0         0
         0         0         0         0         0         0         0         0
         0         0         0         0         0         0         0         0
         0         0         0         0         0         0         0         0
         0         0         0         0         0         0         0         0
         0         0         0         0         0         0         0         0
         0         0         0         0         0         0         0         0
         0         0         0         0         0         0         0         0
         0         0         0         0         0         0         0         0
         0         0         0         0         0         0         0         0
         0         0         0         0         0         0         0         0
         0         0         0         0         0         0         0         0
         0         0         0         0         0         0         0         0
         0         0         0         0         0         0         0         0
         0         0         0         0         0         0         0         0
         0         0         0         0         0         0         0         0
         0         0         0         0         0         0         0         0
         0         0         0         0         0         0         0         0
         0         0         0         0         0         0         0         0
         0         0         0         0         0         0         0         0
         0         0         0         0         0         0         0         0
         0         0         0         0         0         0         0         0
         0         0         0         0         0         0         0         0
         0         0         0         0         0         0         0         0
         0         0         0         0         0         0         0         0
         0         0         0         0         0         0         0         0
         0         0         0         0         0         0         0         0
         0         0         0         0         0         0         0         0
         0         0         0         0         0         0         0         0
         0         0         0         0         0         0         0         0
         0         0         0         0         0         0         0         0
         0         0         0         0         0         0         0         0
         0         0         0         0         0         0         0         0
         0         0         0         0         0         0         0         0
         0         0         0         0         0         0         0         0
         0         0         0         0         0         0         0         0
         0         0         0         0         0         0         0         0
         0         0         0         0         0         0         0         0
         0         0         0         0         0         0         0         0
         0         0         0         0         0         0         0         0
         0         0         0         0         0         0         0         0
         0         0         0         0         0         0         0         0
         0         0         0         0         0         0         0         0
         0         0         0         0         0         0         0         0
         0         0         0         0         0         0         0         0
         0         0         0         0         0         0         0         0
         0         0         0         0         0         0         0         0
         0         0         0         0         0         0         0         0
         0         0         0         0         0         0         0         0
         0         0         0         0         0         0         0         0
         0         0         0         0         0         0         0         0
         0         0         0         0         0         0         0         0
         0         0         0         0         0         0         0         0
         0         0         0         0         0         0         0         0
         0         0         0         0         0         0         0         0
         0         0         0         0         0         0         0         0
         0         0         0         0         0         0         0         0
         0         0         0         0         0         0         0         0
         0         0         0         0         0         0         0         0
         0         0         0         0         0         0         0         0
         0         0         0         0         0         0         0         0
         0         0         0         0         0         0         0         0
         0         0         0         0         0         0         0         0
         0         0         0         0         0         0         0         0
         0         0         0         0         0         0         0         0
         0         0         0         0         0         0         0         0
         0         0         0         0         0         0         0         0
         0         0         0         0         0         0         0         0
         0         0         0         0         0         0         0         0
         0         0         0         0         0         0         0         0
         0         0         0         0         0         0         0         0
         0         0         0         0         0         0         0         0
         0         0         0         0         0         0         0         0
         0         0         0         0         0         0         0         0
         0         0         0         0         0         0         0         0
         0         0         0         0         0         0         0         0
         0         0         0         0         0         0         0         0
         0         0         0         0         0         0         0         0
         0         0         0         0         0         0         0         0
         0         0         0         0         0         0         0         0
         0         0         0         0         0         0         0         0
         0         0         0         0         0         0         0         0
         0         0         0         0         0         0         0         0
         0         0         0         0         0         0         0         0
         0         0         0         0         0         0         0         0
         0         0         0         0         0         0         0         0
         0         0         0         0         0         0         0         0
         0         0         0         0         0         0         0         0
         0         0         0         0         0         0         0         0
         0         0         0         0         0         0         0         0
         0         0         0         0         0         0         0         0
         0         0         0         0         0         0         0         0
         0         0         0         0         0         0         0         0
         0         0         0         0         0         0         0         0
         0         0         0         0         0         0         0         0
         0         0         0         0         0         0         0         0
         0         0         0         0         0         0         0         0
         0         0         0         0         0         0         0         0
         0         0         0         0         0         0         0         0
         0         0         0         0         0         0         0         0
         0         0         0         0         0         0         0         0
         0         0         0         0         0         0         0         0
         0         0         0         0         0         0         0         0
         0         0         0         0         0         0         0         0
         0         0         0         0         0         0         0         0
         0         0         0         0         0         0         0         0
         0         0         0         0         0         0         0         0
         0         0         0         0         0         0         0         0
         0         0         0         0         0         0         0         0
         0         0         0         0         0         0         0         0
         0         0         0         0         0         0         0         0
         0         0         0         0         0         0         0         0
         0         0         0         0         0         0         0         0
         0         0         0         0         0         0         0         0
         0         0         0         0         0         0         0         0
         0         0         0         0         0         0         0         0
         0         0         0         0         0         0         0         0
         0         0         0         0         0         0         0         0
         0         0         0         0         0         0         0         0
         0         0         0         0         0         0         0         0
         0         0         0         0         0         0         0         0
         0         0         0         0         0         0         0         0
         0         0         0         0         0         0         0         0
         0         0         0         0         0         0         0         0
         0         0         0         0         0         0         0         0
         0         0         0         0         0         0         0         0
         0         0         0         0         0         0         0         0
         0         0         0         0         0         0         0         0
         0         0         0         0         0         0         0         0
         0         0         0         0         0         0         0         0
         0         0         0         0         0         0         0         0
         0         0         0         0         0         0         0         0
         0         0         0         0         0         0         0         0
         0         0         0         0         0         0         0         0
         0         0         0         0         0         0         0         0
         0         0         0         0         0         0         0         0
         0         0         0         0         0         0         0         0
         0         0         0         0         0         0         0         0
         0         0         0         0         0         0         0         0
         0         0         0         0         0         0         0         0
         0         0         0         0         0         0         0         0
         0         0         0         0         0         0         0         0
         0         0         0         0         0         0         0         0
         0         0         0         0         0         0         0         0
         0         0         0         0         0         0         0         0
         0         0         0         0         0         0         0         0
         0         0         0         0         0         0         0         0
         0         0         0         0         0         0         0         0
         0         0         0         0         0         0         0         0
         0         0         0         0         0         0         0         0
         0         0         0         0         0         0         0         0
         0         0         0         0         0         0         0         0
         0         0         0         0         0         0         0         0
         0         0         0         0         0         0         0         0
         0         0         0         0         0         0         0         0
         0         0         0         0         0         0         0         0
         0         0         0         0         0         0         0         0
         0         0         0         0         0         0         0         0
         0         0         0         0         0         0         0         0
         0         0         0         0         0         0         0         0
         0         0         0         0         0         0         0         0
         0         0         0         0         0         0         0         0
         0         0         0         0         0         0         0         0
         0         0         0         0         0         0         0         0
         0         0         0         0         0         0         0         0
         0         0         0         0         0         0         0         0
         0         0         0         0         0         0         0         0
         0         0         0         0         0         0         0         0
         0         0         0         0         0         0         0         0
         0         0         0         0         0         0         0         0
         0         0         0         0         0         0         0         0
         0         0         0         0         0         0         0         0
         0         0         0         0         0         0         0         0
         0         0         0         0         0         0         0         0
         0         0         0         0         0         0         0         0
         0         0         0         0         0         0         0         0
         0         0         0         0         0         0         0         0
         0         0         0         0         0         0         0         0
         0         0         0         0         0         0         0         0
         0         0         0         0         0         0         0         0
         0         0         0         0         0         0         0         0
         0         0         0         0         0         0         0         0
         0         0         0         0         0         0         0         0
         0         0         0         0         0         0         0         0
         0         0         0         0         0         0         0         0
         0         0         0         0         0         0         0         0
         0         0         0         0         0         0         0         0
         0         0         0         0         0         0         0         0
         0         0         0         0         0         0         0         0
         0         0         0         0         0         0         0         0
         0         0         0         0         0         0         0         0
         0         0         0         0         0         0         0         0
         0         0         0         0         0         0         0         0
         0         0         0         0         0         0         0         0
         0         0         0         0         0         0         0         0
         0         0         0         0         0         0         0         0
         0         0         0         0         0         0         0         0
         0         0         0         0         0         0         0         0
         0         0         0         0         0         0         0         0
         0         0         0         0         0         0         0         0
         0         0         0         0         0         0         0         0
         0         0         0         0         0         0         0         0
         0         0         0         0         0         0         0         0
         0         0         0         0         0         0         0         0
         0         0         0         0         0         0         0         0
         0         0         0         0         0         0         0         0
         0         0         0         0         0         0         0         0
         0         0         0         0         0         0         0         0
         0         0         0         0         0         0         0         0
         0         0         0         0         0         0         0         0
         0         0         0         0         0         0         0         0
         0         0         0         0         0         0         0         0
         0         0         0         0         0         0         0         0
         0         0         0         0         0         0         0         0
         0         0         0         0         0         0         0         0
         0         0         0         0         0         0         0         0
         0         0         0         0         0         0         0         0
         0         0         0         0         0         0         0         0
         0         0         0         0         0         0         0         0
         0         0         0         0         0         0         0         0
         0         0         0         0         0         0         0         0
         0         0         0         0         0         0         0         0
         0         0         0         0         0         0         0         0
         0         0         0         0         0         0         0         0
         0         0         0         0         0         0         0         0
         0         0         0         0         0         0         0         0
         0         0         0         0         0         0         0         0
         0         0         0         0         0         0         0         0
         0         0         0         0         0         0         0         0
         0         0         0         0         0         0         0         0
         0         0         0         0         0         0         0         0
         0         0         0         0         0         0         0         0
         0         0         0         0         0         0         0         0
         0         0         0         0         0         0         0         0
         0         0         0         0         0         0         0         0
         0         0         0         0         0         0         0         0
         0         0         0         0         0         0         0         0
         0         0         0         0         0         0         0         0
         0         0         0         0         0         0         0         0
         0         0         0         0         0         0         0         0
         0         0         0         0         0         0         0         0
         0         0         0         0         0         0         0         0
         0         0         0         0         0         0         0         0
         0         0         0         0         0         0         0         0
         0         0         0         0         0         0         0         0
         0         0         0         0         0         0         0         0
         0         0         0         0         0         0         0         0
         0         0         0         0         0         0         0         0
         0         0         0         0         0         0         0         0
         0         0         0         0         0         0         0         0
         0         0         0         0         0         0         0         0
         0         0         0         0         0         0         0         0
         0         0         0         0         0         0         0         0
         0         0         0         0         0         0         0         0
         0         0         0         0         0         0         0         0
         0         0         0         0         0         0         0         0
         0         0         0         0         0         0         0         0
         0         0         0         0         0         0         0         0
         0         0         0         0         0         0         0         0
         0         0         0         0         0         0         0         0
         0         0         0         0         0         0         0         0
         0         0         0         0         0         0         0         0
         0         0         0         0         0         0         0         0
         0         0         0         0         0         0         0         0
         0         0         0         0         0         0         0         0
         0         0         0         0         0         0         0         0
         0         0         0         0         0         0         0         0
         0         0         0         0         0         0         0         0
         0         0         0         0         0         0         0         0
         0         0         0         0         0         0         0         0
         0         0         0         0         0         0         0         0
         0         0         0         0         0         0         0         0
         0         0         0         0         0         0         0         0
         0         0         0         0         0         0         0         0
         0         0         0         0         0         0         0         0
         0         0         0         0         0         0         0         0
         0         0         0         0         0         0         0         0
         0         0         0         0         0         0         0         0
         0         0         0         0         0         0         0         0
         0         0         0         0         0         0         0         0
         0         0         0         0         0         0         0         0
         0         0         0         0         0         0         0         0
         0         0         0         0         0         0         0         0
         0         0         0         0         0         0         0         0
         0         0         0         0         0         0         0         0
         0         0         0         0         0         0         0         0
         0         0         0         0         0         0         0         0
         0         0         0         0         0         0         0         0
         0         0         0         0         0         0         0         0
         0         0         0         0         0         0         0         0
         0         0         0         0         0         0         0         0
         0         0         0         0         0         0         0         0
         0         0         0         0         0         0         0         0
         0         0         0         0         0         0         0         0
         0         0         0         0         0         0         0         0
         0         0         0         0         0         0         0         0
         0         0         0         0         0         0         0         0
         0         0         0         0         0         0         0         0
         0         0         0         0         0         0         0         0
         0         0         0         0         0         0         0         0
         0         0         0         0         0         0         0         0
         0         0         0         0         0         0         0         0
         0         0         0         0         0         0         0         0
         0         0         0         0         0         0         0         0
         0         0         0         0         0         0         0         0
         0         0         0         0         0         0         0         0
         0         0         0         0         0         0         0         0
         0         0         0         0         0         0         0         0
         0         0         0         0         0         0         0         0
         0         0         0         0         0         0         0         0
         0         0         0         0         0         0         0         0
         0         0         0         0         0         0         0         0
         0         0         0         0         0         0         0         0
         0         0         0         0         0         0         0         0
         0         0         0         0         0         0         0         0
         0         0         0         0         0         0         0         0
         0         0         0         0         0         0         0         0
         0         0         0         0         0         0         0         0
         0         0         0         0         0         0         0         0
         0         0         0         0         0         0         0         0
         0         0         0         0         0         0         0         0
         0         0         0         0         0         0         0         0
         0         0         0         0         0         0         0         0
         0         0         0         0         0         0         0         0
         0         0         0         0         0         0         0         0
         0         0         0         0         0         0         0         0
         0         0         0         0         0         0         0         0
         0         0         0         0         0         0         0         0
         0         0         0         0         0         0         0         0
         0         0         0         0         0         0         0         0
         0         0         0         0         0         0         0         0
         0         0         0         0         0         0         0         0
         0         0         0         0         0         0         0         0
         0         0         0         0         0         0         0         0
         0         0         0         0         0         0         0         0
         0         0         0         0         0         0         0         0
         0         0         0         0         0         0         0         0
         0         0         0         0         0         0         0         0
         0         0         0         0         0         0         0         0
         0         0         0         0         0         0         0         0
         0         0         0         0         0         0         0         0
         0         0         0         0         0         0         0         0
         0         0         0         0         0         0         0         0
         0         0         0         0         0         0         0         0
         0         0         0         0         0         0         0         0
         0         0         0         0         0         0         0         0
         0         0         0         0         0         0         0         0
         0         0         0         0         0         0         0         0
         0         0         0         0         0         0         0         0
         0         0         0         0         0         0         0         0
         0         0         0         0         0         0         0         0
         0         0         0         0         0         0         0         0
         0         0         0         0         0         0         0         0
         0         0         0         0         0         0         0         0
         0         0         0         0         0         0         0         0
         0         0         0         0         0         0         0         0
         0         0         0         0         0         0         0         0
         0         0         0         0         0         0         0         0
         0         0         0         0         0         0         0         0
         0         0         0         0         0         0         0         0
         0         0         0         0         0         0         0         0
         0         0         0         0         0         0         0         0
         0         0         0         0         0         0         0         0
         0         0         0         0         0         0         0         0
         0         0         0         0         0         0         0         0
         0         0         0         0         0         0         0         0
         0         0         0         0         0         0         0         0
         0         0         0         0         0         0         0         0
         0         0         0         0         0         0         0         0
         0         0         0         0         0         0         0         0
         0         0         0         0         0         0         0         0
         0         0         0         0         0         0         0         0
         0         0         0         0         0         0         0         0
         0         0         0         0         0         0         0         0
         0         0         0         0         0         0         0         0
         0         0         0         0         0         0         0         0
         0         0         0         0         0         0         0         0
         0         0         0         0         0         0         0         0
         0         0         0         0         0         0         0         0
         0         0         0         0         0         0         0         0
         0         0         0         0         0         0         0         0
         0         0         0         0         0         0         0         0
         0         0         0         0         0         0         0         0
         0         0         0         0         0         0         0         0
         0         0         0         0         0         0         0         0
         0         0         0         0         0         0         0         0
         0         0         0         0         0         0         0         0
         0         0         0         0         0         0         0         0
         0         0         0         0         0         0         0         0
         0         0         0         0         0         0         0         0
         0         0         0         0         0         0         0         0
         0         0         0         0         0         0         0         0
         0         0         0         0         0         0         0         0
         0         0         0         0         0         0         0         0
         0         0         0         0         0         0         0         0
         0         0         0         0         0         0         0         0
         0         0         0         0         0         0         0         0
         0         0         0         0         0         0         0         0
         0         0         0         0         0         0         0         0
         0         0         0         0         0         0         0         0
         0         0         0         0         0         0         0         0
         0         0         0         0         0         0         0         0
         0         0         0         0         0         0         0         0
         0         0         0         0         0         0         0         0
         0         0         0         0         0         0         0         0
         0         0         0         0         0         0         0         0
         0         0         0         0         0         0         0         0
         0         0         0         0         0         0         0         0
         0         0         0         0         0         0         0         0
         0         0         0         0         0         0         0         0
         0         0         0         0         0         0         0         0
         0         0         0         0         0         0         0         0
         0         0         0         0         0         0         0         0
         0         0         0         0         0         0         0         0
         0         0         0         0         0         0         0         0
         0         0         0         0         0         0         0         0
         0         0         0         0         0         0         0         0
         0         0         0         0         0         0         0         0
         0         0         0         0         0         0         0         0
         0         0         0         0         0         0         0         0
         0         0         0         0         0         0         0         0
         0         0         0         0         0         0         0         0
         0         0         0         0         0         0         0         0
         0         0         0         0         0         0         0         0
         0         0         0         0         0         0         0         0
         0         0         0         0         0         0         0         0
         0         0         0         0         0         0         0         0
         0         0         0         0         0         0         0         0
         0         0         0         0         0         0         0         0
         0         0         0         0         0         0         0         0
         0         0         0         0         0         0         0         0
         0         0         0         0         0         0         0         0
         0         0         0         0         0         0         0         0
         0         0         0         0         0         0         0         0
         0         0         0         0         0         0         0         0
         0         0         0         0         0         0         0         0
         0         0         0         0         0         0         0         0
         0         0         0         0         0         0         0         0
         0         0         0         0         0         0         0         0
         0         0         0         0         0         0         0         0
         0         0         0         0         0         0         0         0
         0         0         0         0         0         0         0         0
         0         0         0         0         0         0         0         0
         0         0         0         0         0         0         0         0
         0         0         0         0         0         0         0         0
         0         0         0         0         0         0         0         0
         0         0         0         0         0         0         0         0
         0         0         0         0         0         0         0         0
         0         0         0         0         0         0         0         0
         0         0         0         0         0         0         0         0
         0         0         0         0         0         0         0         0
         0         0         0         0         0         0         0         0
         0         0         0         0         0         0         0         0
         0         0         0         0         0         0         0         0
         0         0         0         0         0         0         0         0
         0         0         0         0         0         0         0         0
         0         0         0         0         0         0         0         0
         0         0         0         0         0         0         0         0
         0         0         0         0         0         0         0         0
         0         0         0         0         0         0         0         0
         0         0         0         0         0         0         0         0
         0         0         0         0         0         0         0         0
         0         0         0         0         0         0         0         0
         0         0         0         0         0         0         0         0
         0         0         0         0         0         0         0         0
         0         0         0         0         0         0         0         0
         0         0         0         0         0         0         0         0
         0         0         0         0         0         0         0         0
         0         0         0         0         0         0         0         0
         0         0         0         0         0         0         0         0
         0         0         0         0         0         0         0         0
         0         0         0         0         0         0         0         0
         0         0         0         0         0         0         0         0
         0         0         0         0         0         0         0         0
         0         0         0         0         0         0         0         0
         0         0         0         0         0         0         0         0
         0         0         0         0         0         0         0         0
         0         0         0         0         0         0         0         0
         0         0         0         0         0         0         0         0
         0         0         0         0         0         0         0         0
         0         0         0         0         0         0         0         0
         0         0         0         0         0         0         0         0
         0         0         0         0         0         0         0         0
         0         0         0         0         0         0         0         0
         0         0         0         0         0         0         0         0
         0         0         0         0         0         0         0         0
         0         0         0         0         0         0         0         0
         0         0         0         0         0         0         0         0
         0         0         0         0         0         0         0         0
         0         0         0         0         0         0         0         0
         0         0         0         0         0         0         0         0
         0         0         0         0         0         0         0         0
         0         0         0         0         0         0         0         0
         0         0         0         0         0         0         0         0
         0         0         0         0         0         0         0         0
         0         0         0         0         0         0         0         0
         0         0         0         0         0         0         0         0
         0         0         0         0         0         0         0         0
         0         0         0         0         0         0         0         0
         0         0         0         0         0         0         0         0
         0         0         0         0         0         0         0         0
         0         0         0         0         0         0         0         0
         0         0         0         0         0         0         0         0
         0         0         0         0         0         0         0         0
         0         0         0         0         0         0         0         0
         0         0         0         0         0         0         0         0
         0         0         0         0         0         0         0         0
         0         0         0         0         0         0         0         0
         0         0         0         0         0         0         0         0
         0         0         0         0         0         0         0         0
         0         0         0         0         0         0         0         0
         0         0         0         0         0         0         0         0
         0         0         0         0         0         0         0         0
         0         0         0         0         0         0         0         0
         0         0         0         0         0         0         0         0
         0         0         0         0         0         0         0         0
         0         0         0         0         0         0         0         0
         0         0         0         0         0         0         0         0
         0         0         0         0         0         0         0         0
         0         0         0         0         0         0         0         0
         0         0         0         0         0         0         0         0
         0         0         0         0         0         0         0         0
         0         0         0         0         0         0         0         0
         0         0         0         0         0         0         0         0
         0         0         0         0         0         0         0         0
         0         0         0         0         0         0         0         0
         0         0         0         0         0         0         0         0
         0         0         0         0         0         0         0         0
         0         0         0         0         0         0         0         0
         0         0         0         0         0         0         0         0
         0         0         0         0         0         0         0         0
         0         0         0         0         0         0         0         0
         0         0         0         0         0         0         0         0
         0         0         0         0         0         0         0         0
         0         0         0         0         0         0         0         0
         0         0         0         0         0         0         0         0
         0         0         0         0         0         0         0         0
         0         0         0         0         0         0         0         0
         0         0         0         0         0         0         0         0
         0         0         0         0         0         0         0         0
         0         0         0         0         0         0         0         0
         0         0         0         0         0         0         0         0
         0         0         0         0         0         0         0         0
         0         0         0         0         0         0         0         0
         0         0         0         0         0         0         0         0
         0         0         0         0         0         0         0         0
         0         0         0         0         0         0         0         0
         0         0         0         0         0         0         0         0
         0         0         0         0         0         0         0         0
         0         0         0         0         0         0         0         0
         0         0         0         0         0         0         0         0
         0         0         0         0         0         0         0         0
         0         0         0         0         0         0         0         0
         0         0         0         0         0         0         0         0
         0         0         0         0         0         0         0         0
         0         0         0         0         0         0         0         0
         0         0         0         0         0         0         0         0
         0         0         0         0         0         0         0         0
         0         0         0         0         0         0         0         0
         0         0         0         0         0         0         0         0
         0         0         0         0         0         0         0         0
         0         0         0         0         0         0         0         0
         0         0         0         0         0         0         0         0
         0         0         0         0         0         0         0         0
         0         0         0         0         0         0         0         0
         0         0         0         0         0         0         0         0
         0         0         0         0         0         0         0         0
         0         0         0         0         0         0         0         0
         0         0         0         0         0         0         0         0
         0         0         0         0         0         0         0         0
         0         0         0         0         0         0         0         0
         0         0         0         0         0         0         0         0
         0         0         0         0         0         0         0         0
         0         0         0         0         0         0         0         0
         0         0         0         0         0         0         0         0
         0         0         0         0         0         0         0         0
         0         0         0         0         0         0         0         0
         0         0         0         0         0         0         0         0
         0         0         0         0         0         0         0         0
         0         0         0         0         0         0         0         0
         0         0         0         0         0         0         0         0
         0         0         0         0         0         0         0         0
         0         0         0         0         0         0         0         0
         0         0         0         0         0         0         0         0
         0         0         0         0         0         0         0         0
         0         0         0         0         0         0         0         0
         0         0         0         0         0         0         0         0
         0         0         0         0         0         0         0         0
         0         0         0         0         0         0         0         0
         0         0         0         0         0         0         0         0
         0         0         0         0         0         0         0         0
         0         0         0         0         0         0         0         0
         0         0         0         0         0         0         0         0
         0         0         0         0         0         0         0         0
         0         0         0         0         0         0         0         0
         0         0         0         0         0         0         0         0
         0         0         0         0         0         0         0         0
         0         0         0         0         0         0         0         0
         0         0         0         0         0         0         0         0
         0         0         0         0         0         0         0         0
         0         0         0         0         0         0         0         0
         0         0         0         0         0         0         0         0
         0         0         0         0         0         0         0         0
         0         0         0         0         0         0         0         0
         0         0         0         0         0         0         0         0
         0         0         0         0         0         0         0         0
         0         0         0         0         0         0         0         0
         0         0         0         0         0         0         0         0
         0         0         0         0         0         0         0         0
         0         0         0         0         0         0         0         0
         0         0         0         0         0         0         0         0
         0         0         0         0         0         0         0         0
         0         0         0         0         0         0         0         0
         0         0         0         0         0         0         0         0
         0         0         0         0         0         0         0         0
         0         0         0         0         0         0         0         0
         0         0         0         0         0         0         0         0
         0         0         0         0         0         0         0         0
         0         0         0         0         0         0         0         0
         0         0         0         0         0         0         0         0
         0         0         0         0         0         0         0         0
         0         0         0         0         0         0         0         0
         0         0         0         0         0         0         0         0
         0         0         0         0         0         0         0         0
         0         0         0         0         0         0         0         0
         0         0         0         0         0         0         0         0
         0         0         0         0         0         0         0         0
         0         0         0         0         0         0         0         0
         0         0         0         0         0         0         0         0
         0         0         0         0         0         0         0         0
         0         0         0         0         0         0         0         0
         0         0         0         0         0         0         0         0
         0         0         0         0         0         0         0         0
         0         0         0         0         0         0         0         0
         0         0         0         0         0         0         0         0
         0         0         0         0         0         0         0         0
         0         0         0         0         0         0         0         0
         0         0         0         0         0         0         0         0
         0         0         0         0         0         0         0         0
         0         0         0         0         0         0         0         0
         0         0         0         0         0         0         0         0
         0         0         0         0         0         0         0         0
         0         0         0         0         0         0         0         0
         0         0         0         0         0         0         0         0
         0         0         0         0         0         0         0         0
         0         0         0         0         0         0         0         0
         0         0         0         0         0         0         0         0
         0         0         0         0         0         0         0         0
         0         0         0         0         0         0         0         0
         0         0         0         0         0         0         0         0
         0         0         0         0         0         0         0         0
         0         0         0         0         0         0         0         0
         0         0         0         0         0         0         0         0
         0         0         0         0         0         0         0         0
         0         0         0         0         0         0         0         0
         0         0         0         0         0         0         0         0
         0         0         0         0         0         0         0         0
         0         0         0         0         0         0         0         0
         0         0         0         0         0         0         0         0
         0         0         0         0         0         0         0         0
         0         0         0         0         0         0         0         0
         0         0         0         0         0         0         0         0
         0         0         0         0         0         0         0         0
         0         0         0         0         0         0         0         0
         0         0         0         0         0         0         0         0
         0         0         0         0         0         0         0         0
         0         0         0         0         0         0         0         0
         0         0         0         0         0         0         0         0
         0         0         0         0         0         0         0         0
         0         0         0         0         0         0         0         0
         0         0         0         0         0         0         0         0
         0         0         0         0         0         0         0         0
         0         0         0         0         0         0         0         0
         0         0         0         0         0         0         0         0
         0         0         0         0         0         0         0         0
         0         0         0         0         0         0         0         0
         0         0         0         0         0         0         0         0
         0         0         0         0         0         0         0         0
         0         0         0         0         0         0         0         0
         0         0         0         0         0         0         0         0
         0         0         0         0         0         0         0         0
         0         0         0         0         0         0         0         0
         0         0         0         0         0         0         0         0
         0         0         0         0         0         0         0         0
         0         0         0         0         0         0         0         0
         0         0         0         0         0         0         0         0
         0         0         0         0         0         0         0         0
         0         0         0         0         0         0         0         0
         0         0         0         0         0         0         0         0
         0         0         0         0         0         0         0         0
         0         0         0         0         0         0         0         0
         0         0         0         0         0         0         0         0
         0         0         0         0         0         0         0         0
         0         0         0         0         0         0         0         0
         0         0         0         0         0         0         0         0
         0         0         0         0         0         0         0         0
         0         0         0         0         0         0         0         0
         0         0         0         0         0         0         0         0
         0         0         0         0         0         0         0         0
         0         0         0         0         0         0         0         0
         0         0         0         0         0         0         0         0
         0         0         0         0         0         0         0         0
         0         0         0         0         0         0         0         0
         0         0         0         0         0         0         0         0
         0         0         0         0         0         0         0         0
         0         0         0         0         0         0         0         0
         0         0         0         0         0         0         0         0
         0         0         0         0         0         0         0         0
         0         0         0         0         0         0         0         0
         0         0         0         0         0         0         0         0
         0         0         0         0         0         0         0         0
         0         0         0         0         0         0         0         0
         0         0         0         0         0         0         0         0
         0         0         0         0         0         0         0         0
         0         0         0         0         0         0         0         0
         0         0         0         0         0         0         0         0
         0         0         0         0         0         0         0         0
         0         0         0         0         0         0         0         0
         0         0         0         0         0         0         0         0
         0         0         0         0         0         0         0         0
         0         0         0         0         0         0         0         0
         0         0         0         0         0         0         0         0
         0         0         0         0         0         0         0         0
         0         0         0         0         0         0         0         0
         0         0         0         0         0         0         0         0
         0         0         0         0         0         0         0         0
         0         0         0         0         0         0         0         0
         0         0         0         0         0         0         0         0
         0         0         0         0         0         0         0         0
         0         0         0         0         0         0         0         0
         0         0         0         0         0         0         0         0
         0         0         0         0         0         0         0         0
         0         0         0         0         0         0         0         0
         0         0         0         0         0         0         0         0
         0         0         0         0         0         0         0         0
         0         0         0         0         0         0         0         0
         0         0         0         0         0         0         0         0
         0         0         0         0         0         0         0         0
         0         0         0         0         0         0         0         0
         0         0         0         0         0         0         0         0
         0         0         0         0         0         0         0         0
         0         0         0         0         0         0         0         0
         0         0         0         0         0         0         0         0
         0         0         0         0         0         0         0         0
         0         0         0         0         0         0         0         0
         0         0         0         0         0         0         0         0
         0         0         0         0         0         0         0         0
         0         0         0         0         0         0         0         0
         0         0         0         0         0         0         0         0
         0         0         0         0         0         0         0         0
         0         0         0         0         0         0         0         0
         0         0         0         0         0         0         0         0
         0         0         0         0         0         0         0         0
         0         0         0         0         0         0         0         0
         0         0         0         0         0         0         0         0
         0         0         0         0         0         0         0         0
         0         0         0         0         0         0         0         0
         0         0         0         0         0         0         0         0
         0         0         0         0         0         0         0         0
         0         0         0         0         0         0         0         0
         0         0         0         0         0         0         0         0
         0         0         0         0         0         0         0         0
         0         0         0         0         0         0         0         0
         0         0         0         0         0         0         0         0
         0         0         0         0         0         0         0         0
         0         0         0         0         0         0         0         0
         0         0         0         0         0         0         0         0
         0         0         0         0         0         0         0         0
         0         0         0         0         0         0         0         0
         0         0         0         0         0         0         0         0
         0         0         0         0         0         0         0         0
         0         0         0         0         0         0         0         0
         0         0         0         0         0         0         0         0
         0         0         0         0         0         0         0         0
         0         0         0         0         0         0         0         0
         0         0         0         0         0         0         0         0
         0         0         0         0         0         0         0         0
         0         0         0         0         0         0         0         0
         0         0         0         0         0         0         0         0
         0         0         0         0         0         0         0         0
         0         0         0         0         0         0         0         0
         0         0         0         0         0         0         0         0
         0         0         0         0         0         0         0         0
         0         0         0         0         0         0         0         0
         0         0         0         0         0         0         0         0
         0         0         0         0         0         0         0         0
         0         0         0         0         0         0         0         0
         0         0         0         0         0         0         0         0
         0         0         0         0         0         0         0         0
         0         0         0         0         0         0         0         0
         0         0         0         0         0         0         0         0
         0         0         0         0         0         0         0         0
         0         0         0         0         0         0         0         0
         0         0         0         0         0         0         0         0
         0         0         0         0         0         0         0         0
         0         0         0         0         0         0         0         0
         0         0         0         0         0         0         0         0
         0         0         0         0         0         0         0         0
         0         0         0         0         0         0         0         0
         0         0         0         0         0         0         0         0
         0         0         0         0         0         0         0         0
         0         0         0         0         0         0         0         0
         0         0         0         0         0         0         0         0
         0         0         0         0         0         0         0         0
         0         0         0         0         0         0         0         0
         0         0         0         0         0         0         0         0
         0         0         0         0         0         0         0         0
         0         0         0         0         0         0         0         0
         0         0         0         0         0         0         0         0
         0         0         0         0         0         0         0         0
         0         0         0         0         0         0         0         0
         0         0         0         0         0         0         0         0
         0         0         0         0         0         0         0         0
         0         0         0         0         0         0         0         0
         0         0         0         0         0         0         0         0
         0         0         0         0         0         0         0         0
         0         0         0         0         0         0         0         0
         0         0         0         0         0         0         0         0
         0         0         0         0         0         0         0         0
         0         0         0         0         0         0         0         0
         0         0         0         0         0         0         0         0
         0         0         0         0         0         0         0         0
         0         0         0         0         0         0         0         0
         0         0         0         0         0         0         0         0
         0         0         0         0         0         0         0         0
         0         0         0         0         0         0         0         0
         0         0         0         0         0         0         0         0
         0         0         0         0         0         0         0         0
         0         0         0         0         0         0         0         0
         0         0         0         0         0         0         0         0
         0         0         0         0         0         0         0         0
         0         0         0         0         0         0         0         0
         0         0         0         0         0         0         0         0
         0         0         0         0         0         0         0         0
         0         0         0         0         0         0         0         0
         0         0         0         0         0         0         0         0
         0         0         0         0         0         0         0         0
         0         0         0         0         0         0         0         0
         0         0         0         0         0         0         0         0
         0         0         0         0         0         0         0         0
         0         0         0         0         0         0         0         0
         0         0         0         0         0         0         0         0
         0         0         0         0         0         0         0         0
         0         0         0         0         0         0         0         0
         0         0         0         0         0         0         0         0
         0         0         0         0         0         0         0         0
         0         0         0         0         0         0         0         0
         0         0         0         0         0         0         0         0
         0         0         0         0         0         0         0         0
         0         0         0         0         0         0         0         0
         0         0         0         0         0         0         0         0
         0         0         0         0         0         0         0         0
         0         0         0         0         0         0         0         0
         0         0         0         0         0         0         0         0
         0         0         0         0         0         0         0         0
         0         0         0         0         0         0         0         0
         0         0         0         0         0         0         0         0
         0         0         0         0         0         0         0         0
         0         0         0         0         0         0         0         0
         0         0         0         0         0         0         0         0
         0         0         0         0         0         0         0         0
         0         0         0         0         0         0         0         0
         0         0         0         0         0         0         0         0
         0         0         0         0         0         0         0         0
         0         0         0         0         0         0         0         0
         0         0         0         0         0         0         0         0
         0         0         0         0         0         0         0         0
         0         0         0         0         0         0         0         0
         0         0         0         0         0         0         0         0
         0         0         0         0         0         0         0         0
         0         0         0         0         0         0         0         0
         0         0         0         0         0         0         0         0
         0         0         0         0         0         0         0         0
         0         0         0         0         0         0         0         0
         0         0         0         0         0         0         0         0
         0         0         0         0         0         0         0         0
         0         0         0         0         0         0         0         0
         0         0         0         0         0         0         0         0
         0         0         0         0         0         0         0         0
         0         0         0         0         0         0         0         0
         0         0         0         0         0         0         0         0
         0         0         0         0         0         0         0         0
         0         0         0         0         0         0         0         0
         0         0         0         0         0         0         0         0
         0         0         0         0         0         0         0         0
         0         0         0         0         0         0         0         0
         0         0         0         0         0         0         0         0
         0         0         0         0         0         0         0         0
         0         0         0         0         0         0         0         0
         0         0         0         0         0         0         0         0
         0         0         0         0         0         0         0         0
         0         0         0         0         0         0         0         0
         0         0         0         0         0         0         0         0
         0         0         0         0         0         0         0         0
         0         0         0         0         0         0         0         0
         0         0         0         0         0         0         0         0
         0         0         0         0         0         0         0         0
         0         0         0         0         0         0         0         0
         0         0         0         0         0         0         0         0
         0         0         0         0         0         0         0         0
         0         0         0         0         0         0         0         0
         0         0         0         0         0         0         0         0
         0         0         0         0         0         0         0         0
         0         0         0         0         0         0         0         0
         0         0         0         0         0         0         0         0
         0         0         0         0         0         0         0         0
         0         0         0         0         0         0         0         0
         0         0         0         0         0         0         0         0
         0         0         0         0         0         0         0         0
         0         0         0         0         0         0         0         0
         0         0         0         0         0         0         0         0
         0         0         0         0         0         0         0         0
         0         0         0         0         0         0         0         0
         0         0         0         0         0         0         0         0
         0         0         0         0         0         0         0         0
         0         0         0         0         0         0         0         0
         0         0         0         0         0         0         0         0
         0         0         0         0         0         0         0         0
         0         0         0         0         0         0         0         0
         0         0         0         0         0         0         0         0
         0         0         0         0         0         0         0         0
         0         0         0         0         0         0         0         0
         0         0         0         0         0         0         0         0
         0         0         0         0         0         0         0         0
         0         0         0         0         0         0         0         0
         0         0         0         0         0         0         0         0
         0         0         0         0         0         0         0         0
         0         0         0         0         0         0         0         0
         0         0         0         0         0         0         0         0
         0         0         0         0         0         0         0         0
         0         0         0         0         0         0         0         0
         0         0         0         0         0         0         0         0
         0         0         0         0         0         0         0         0
         0         0         0         0         0         0         0         0
         0         0         0         0         0         0         0         0
         0         0         0         0         0         0         0         0
         0         0         0         0         0         0         0         0
         0         0         0         0         0         0         0         0
         0         0         0         0         0         0         0         0
         0         0         0         0         0         0         0         0
         0         0         0         0         0         0         0         0
         0         0         0         0         0         0         0         0
         0         0         0         0         0         0         0         0
         0         0         0         0         0         0         0         0
         0         0         0         0         0         0         0         0
         0         0         0         0         0         0         0         0
         0         0         0         0         0         0         0         0
         0         0         0         0         0         0         0         0
         0         0         0         0         0         0         0         0
         0         0         0         0         0         0         0         0
         0         0         0         0         0         0         0         0
         0         0         0         0         0         0         0         0
         0         0         0         0         0         0         0         0
         0         0         0         0         0         0         0         0
         0         0         0         0         0         0         0         0
         0         0         0         0         0         0         0         0
         0         0         0         0         0         0         0         0
         0         0         0         0         0         0         0         0
         0         0         0         0         0         0         0         0
         0         0         0         0         0         0         0         0
         0         0         0         0         0         0         0         0
         0         0         0         0         0         0         0         0
         0         0         0         0         0         0         0         0
         0         0         0         0         0         0         0         0
         0         0         0         0         0         0         0         0
         0         0         0         0         0         0         0         0
         0         0         0         0         0         0         0         0
         0         0         0         0         0         0         0         0
         0         0         0         0         0         0         0         0
         0         0         0         0         0         0         0         0
         0         0         0         0         0         0         0         0
         0         0         0         0         0         0         0         0
         0         0         0         0         0         0         0         0
         0         0         0         0         0         0         0         0
         0         0         0         0         0         0         0         0
         0         0         0         0         0         0         0         0
         0         0         0         0         0         0         0         0
         0         0         0         0         0         0         0         0
         0         0         0         0         0         0         0         0
         0         0         0         0         0         0         0         0
         0         0         0         0         0         0         0         0
         0         0         0         0         0         0         0         0
         0         0         0         0         0         0         0         0
         0         0         0         0         0         0         0         0
         0         0         0         0         0         0         0         0
         0         0         0         0         0         0         0         0
         0         0         0         0         0         0         0         0
         0         0         0         0         0         0         0         0
         0         0         0         0         0         0         0         0
         0         0         0         0         0         0         0         0
         0         0         0         0         0         0         0         0
         0         0         0         0         0         0         0         0
         0         0         0         0         0         0         0         0
         0         0         0         0         0         0         0         0
         0         0         0         0         0         0         0         0
         0         0         0         0         0         0         0         0
         0         0         0         0         0         0         0         0
         0         0         0         0         0         0         0         0
         0         0         0         0         0         0         0         0
         0         0         0         0         0         0         0         0
         0         0         0         0         0         0         0         0
         0         0         0         0         0         0         0         0
         0         0         0         0         0         0         0         0
         0         0         0         0         0         0         0         0
         0         0         0         0         0         0         0         0
         0         0         0         0         0         0         0         0
         0         0         0         0         0         0         0         0
         0         0         0         0         0         0         0         0
         0         0         0         0         0         0         0         0
         0         0         0         0         0         0         0         0
         0         0         0         0         0         0         0         0
         0         0         0         0         0         0         0         0
         0         0         0         0         0         0         0         0
         0         0         0         0         0         0         0         0
         0         0         0         0         0         0         0         0
         0         0         0         0         0         0         0         0
         0         0         0         0         0         0         0         0
         0         0         0         0         0         0         0         0
         0         0         0         0         0         0         0         0
         0         0         0         0         0         0         0         0
         0         0         0         0         0         0         0         0
         0         0         0         0         0         0         0         0
         0         0         0         0         0         0         0         0
         0         0         0         0         0         0         0         0
         0         0         0         0         0         0         0         0
         0         0         0         0         0         0         0         0
         0         0         0         0         0         0         0         0
         0         0         0         0         0         0         0         0
         0         0         0         0         0         0         0         0
         0         0         0         0         0         0         0         0
         0         0         0         0         0         0         0         0
         0         0         0         0         0         0         0         0
         0         0         0         0         0         0         0         0
         0         0         0         0         0         0         0         0
         0         0         0         0         0         0         0         0
         0         0         0         0         0         0         0         0
         0         0         0         0         0         0         0         0
         0         0         0         0         0         0         0         0
         0         0         0         0         0         0         0         0
         0         0         0         0         0         0         0         0
         0         0         0         0         0         0         0         0
         0         0         0         0         0         0         0         0
         0         0         0         0         0         0         0         0
         0         0         0         0         0         0         0         0
         0         0         0         0         0         0         0         0
         0         0         0         0         0         0         0         0
         0         0         0         0         0         0         0         0
         0         0         0         0         0         0         0         0
         0         0         0         0         0         0         0         0
         0         0         0         0         0         0         0         0
         0         0         0         0         0         0         0         0
         0         0         0         0         0         0         0         0
         0         0         0         0         0         0         0         0
         0         0         0         0         0         0         0         0
         0         0         0         0         0         0         0         0
         0         0         0         0         0         0         0         0
         0         0         0         0         0         0         0         0
         0         0         0         0         0         0         0         0
         0         0         0         0         0         0         0         0
         0         0         0         0         0         0         0         0
         0         0         0         0         0         0         0         0
         0         0         0         0         0         0         0         0
         0         0         0         0         0         0         0         0
         0         0         0         0         0         0         0         0
         0         0         0         0         0         0         0         0
         0         0         0         0         0         0         0         0
         0         0         0         0         0         0         0         0
         0         0         0         0         0         0         0         0
         0         0         0         0         0         0         0         0
         0         0         0         0         0         0         0         0
         0         0         0         0         0         0         0         0
         0         0         0         0         0         0         0         0
         0         0         0         0         0         0         0         0
         0         0         0         0         0         0         0         0
         0         0         0         0         0         0         0         0
         0         0         0         0         0         0         0         0
         0         0         0         0         0         0         0         0
         0         0         0         0         0         0         0         0
         0         0         0         0         0         0         0         0
         0         0         0         0         0         0         0         0
         0         0         0         0         0         0         0         0
         0         0         0         0         0         0         0         0
         0         0         0         0         0         0         0         0
         0         0         0         0         0         0         0         0
         0         0         0         0         0         0         0         0
         0         0         0         0         0         0         0         0
         0         0         0         0         0         0         0         0
         0         0         0         0         0         0         0         0
         0         0         0         0         0         0         0         0
         0         0         0         0         0         0         0         0
         0         0         0         0         0         0         0         0
         0         0         0         0         0         0         0         0
         0         0         0         0         0         0         0         0
         0         0         0         0         0         0         0         0
         0         0         0         0         0         0         0         0
         0         0         0         0         0         0         0         0
         0         0         0         0         0         0         0         0
         0         0         0         0         0         0         0         0
         0         0         0         0         0         0         0         0
         0         0         0         0         0         0         0         0
         0         0         0         0         0         0         0         0
         0         0         0         0         0         0         0         0
         0         0         0         0         0         0         0         0
         0         0         0         0         0         0         0         0
         0         0         0         0         0         0         0         0
         0         0         0         0         0         0         0         0
         0         0         0         0         0         0         0         0
         0         0         0         0         0         0         0         0
         0         0         0         0         0         0         0         0
         0         0         0         0         0         0         0         0
         0         0         0         0         0         0         0         0
         0         0         0         0         0         0         0         0
         0         0         0         0         0         0         0         0
         0         0         0         0         0         0         0         0
         0         0         0         0         0         0         0         0
         0         0         0         0         0         0         0         0
         0         0         0         0         0         0         0         0
         0         0         0         0         0         0         0         0
         0         0         0         0         0         0         0         0
         0         0         0         0         0         0         0         0
         0         0         0         0         0         0         0         0
         0         0         0         0         0         0         0         0
         0         0         0         0         0         0         0         0
         0         0         0         0         0         0         0         0
         0         0         0         0         0         0         0         0
         0         0         0         0         0         0         0         0
         0         0         0         0         0         0         0         0
         0         0         0         0         0         0         0         0
         0         0         0         0         0         0         0         0
         0         0         0         0         0         0         0         0
         0         0         0         0         0         0         0         0
         0         0         0         0         0         0         0         0
         0         0         0         0         0         0         0         0
         0         0         0         0         0         0         0         0
         0         0         0         0         0         0         0         0
         0         0         0         0         0         0         0         0
         0         0         0         0         0         0         0         0
         0         0         0         0         0         0         0         0
         0         0         0         0         0         0         0         0
         0         0         0         0         0         0         0         0
         0         0         0         0         0         0         0         0
         0         0         0         0         0         0         0         0
         0         0         0         0         0         0         0         0
         0         0         0         0         0         0         0         0
         0         0         0         0         0         0         0         0
         0         0         0         0         0         0         0         0
         0         0         0         0         0         0         0         0
         0         0         0         0         0         0         0         0
         0         0         0         0         0         0         0         0
         0         0         0         0         0         0         0         0
         0         0         0         0         0         0         0         0
         0         0         0         0         0         0         0         0
         0         0         0         0         0         0         0         0
         0         0         0         0         0         0         0         0
         0         0         0         0         0         0         0         0
         0         0         0         0         0         0         0         0
         0         0         0         0         0         0         0         0
         0         0         0         0         0         0         0         0
         0         0         0         0         0         0         0         0
         0         0         0         0         0         0         0         0
         0         0         0         0         0         0         0         0
         0         0         0         0         0         0         0         0
         0         0         0         0         0         0         0         0
         0         0         0         0         0         0         0         0
         0         0         0         0         0         0         0         0
         0         0         0         0         0         0         0         0
         0         0         0         0         0         0         0         0
         0         0         0         0         0         0         0         0
         0         0         0         0         0         0         0         0
         0         0         0         0         0         0         0         0
         0         0         0         0         0         0         0         0
         0         0         0         0         0         0         0         0
         0         0         0         0         0         0         0         0
         0         0         0         0         0         0         0         0
         0         0         0         0         0         0         0         0
         0         0         0         0         0         0         0         0
         0         0         0         0         0         0         0         0
         0         0         0         0         0         0         0         0
         0         0         0         0         0         0         0         0
         0         0         0         0         0         0         0         0
         0         0         0         0         0         0         0         0
         0         0         0         0         0         0         0         0
         0         0         0         0         0         0         0         0
         0         0         0         0         0         0         0         0
         0         0         0         0         0         0         0         0
         0         0         0         0         0         0         0         0
         0         0         0         0         0         0         0         0
         0         0         0         0         0         0         0         0
         0         0         0         0         0         0         0         0
         0         0         0         0         0         0         0         0
         0         0         0         0         0         0         0         0
         0         0         0         0         0         0         0         0
         0         0         0         0         0         0         0         0
         0         0         0         0         0         0         0         0
         0         0         0         0         0         0         0         0
         0         0         0         0         0         0         0         0
         0         0         0         0         0         0         0         0
         0         0         0         0         0         0         0         0
         0         0         0         0         0         0         0         0
         0         0         0         0         0         0         0         0
         0         0         0         0         0         0         0         0
         0         0         0         0         0         0         0         0
         0         0         0         0         0         0         0         0
         0         0         0         0         0         0         0         0
         0         0         0         0         0         0         0         0
         0         0         0         0         0         0         0         0
         0         0         0         0         0         0         0         0
         0         0         0         0         0         0         0         0
         0         0         0         0         0         0         0         0
         0         0         0         0         0         0         0         0
         0         0         0         0         0         0         0         0
         0         0         0         0         0         0         0         0
         0         0         0         0         0         0         0         0
         0         0         0         0         0         0         0         0
         0         0         0         0         0         0         0         0
         0         0         0         0         0         0         0         0
         0         0         0         0         0         0         0         0
         0         0         0         0         0         0         0         0
         0         0         0         0         0         0         0         0
         0         0         0         0         0         0         0         0
         0         0         0         0         0         0         0         0
         0         0         0         0         0         0         0         0
         0         0         0         0         0         0         0         0
         0         0         0         0         0         0         0         0
         0         0         0         0         0         0         0         0
         0         0         0         0         0         0         0         0
         0         0         0         0         0         0         0         0
         0         0         0         0         0         0         0         0
         0         0         0         0         0         0         0         0
         0         0         0         0         0         0         0         0
         0         0         0         0         0         0         0         0
         0         0         0         0         0         0         0         0
         0         0         0         0         0         0         0         0
         0         0         0         0         0         0         0         0
         0         0         0         0         0         0         0         0
         0         0         0         0         0         0         0         0
         0         0         0         0         0         0         0         0
         0         0         0         0         0         0         0         0
         0         0         0         0         0         0         0         0
         0         0         0         0         0         0         0         0
         0         0         0         0         0         0         0         0
         0         0         0         0         0         0         0         0
         0         0         0         0         0         0         0         0
         0         0         0         0         0         0         0         0
         0         0         0         0         0         0         0         0
         0         0         0         0         0         0         0         0
         0         0         0         0         0         0         0         0
         0         0         0         0         0         0         0         0
         0         0         0         0         0         0         0         0
         0         0         0         0         0         0         0         0
         0         0         0         0         0         0         0         0
         0         0         0         0         0         0         0         0
         0         0         0         0         0         0         0         0
         0         0         0         0         0         0         0         0
         0         0         0         0         0         0         0         0
         0         0         0         0         0         0         0         0
         0         0         0         0         0         0         0         0
         0         0         0         0         0         0         0         0
         0         0         0         0         0         0         0         0
         0         0         0         0         0         0         0         0
         0         0         0         0         0         0         0         0
         0         0         0         0         0         0         0         0
         0         0         0         0         0         0         0         0
         0         0         0         0         0         0         0         0
         0         0         0         0         0         0         0         0
         0         0         0         0         0         0         0         0
         0         0         0         0         0         0         0         0
         0         0         0         0         0         0         0         0
         0         0         0         0         0         0         0         0
         0         0         0         0         0         0         0         0
         0         0         0         0         0         0         0         0
         0         0         0         0         0         0         0         0
         0         0         0         0         0         0         0         0
         0         0         0         0         0         0         0         0
         0         0         0         0         0         0         0         0
         0         0         0         0         0         0         0         0
         0         0         0         0         0         0         0         0
         0         0         0         0         0         0         0         0
         0         0         0         0         0         0         0         0
         0         0         0         0         0         0         0         0
         0         0         0         0         0         0         0         0
         0         0         0         0         0         0         0         0
         0         0         0         0         0         0         0         0
         0         0         0         0         0         0         0         0
         0         0         0         0         0         0         0         0
         0         0         0         0         0         0         0         0
         0         0         0         0         0         0         0         0
         0         0         0         0         0         0         0         0
         0         0         0         0         0         0         0         0
         0         0         0         0         0         0         0         0
         0         0         0         0         0         0         0         0
         0         0         0         0         0         0         0         0
         0         0         0         0         0         0         0         0
         0         0         0         0         0         0         0         0
         0         0         0         0         0         0         0         0
         0         0         0         0         0         0         0         0
         0         0         0         0         0         0         0         0
         0         0         0         0         0         0         0         0
         0         0         0         0         0         0         0         0
         0         0         0         0         0         0         0         0
         0         0         0         0         0         0         0         0
         0         0         0         0         0         0         0         0
         0         0         0         0         0         0         0         0
         0         0         0         0         0         0         0         0
         0         0         0         0         0         0         0         0
         0         0         0         0         0         0         0         0
         0         0         0         0         0         0         0         0
         0         0         0         0         0         0         0         0
         0         0         0         0         0         0         0         0
         0         0         0         0         0         0         0         0
         0         0         0         0         0         0         0         0
         0         0         0         0         0         0         0         0
         0         0         0         0         0         0         0         0
         0         0         0         0         0         0         0         0
         0         0         0         0         0         0         0         0
         0         0         0         0         0         0         0         0
         0         0         0         0         0         0         0         0
         0         0         0         0         0         0         0         0
         0         0         0         0         0         0         0         0
         0         0         0         0         0         0         0         0
         0         0         0         0         0         0         0         0
         0         0         0         0         0         0         0         0
         0         0         0         0         0         0         0         0
         0         0         0         0         0         0         0         0
         0         0         0         0         0         0         0         0
         0         0         0         0         0         0         0         0
         0         0         0         0         0         0         0         0
         0         0         0         0         0         0         0         0
         0         0         0         0         0         0         0         0
         0         0         0         0         0         0         0         0
         0         0         0         0         0         0         0         0
         0         0         0         0         0         0         0         0
         0         0         0         0         0         0         0         0
         0         0         0         0         0         0         0         0
         0         0         0         0         0         0         0         0
         0         0         0         0         0         0         0         0
         0         0         0         0         0         0         0         0
         0         0         0         0         0         0         0         0
         0         0         0         0         0         0         0         0
         0         0         0         0         0         0         0         0
         0         0         0         0         0         0         0         0
         0         0         0         0         0         0         0         0
         0         0         0         0         0         0         0         0
         0         0         0         0         0         0         0         0
         0         0         0         0         0         0         0         0
         0         0         0         0         0         0         0         0
         0         0         0         0         0         0         0         0
         0         0         0         0         0         0         0         0
         0         0         0         0         0         0         0         0
         0         0         0         0         0         0         0         0
         0         0         0         0         0         0         0         0
         0         0         0         0         0         0         0         0
         0         0         0         0         0         0         0         0
         0         0         0         0         0         0         0         0
         0         0         0         0         0         0         0         0
         0         0         0         0         0         0         0         0
         0         0         0         0         0         0         0         0
         0         0         0         0         0         0         0         0
         0         0         0         0         0         0         0         0
         0         0         0         0         0         0         0         0
         0         0         0         0         0         0         0         0
         0         0         0         0         0         0         0         0
         0         0         0         0         0         0         0         0
         0         0         0         0         0         0         0         0
         0         0         0         0         0         0         0         0
         0         0         0         0         0         0         0         0
         0         0         0         0         0         0         0         0
         0         0         0         0         0         0         0         0
         0         0         0         0         0         0         0         0
         0         0         0         0         0         0         0         0
         0         0         0         0         0         0         0         0
         0         0         0         0         0         0         0         0
         0         0         0         0         0         0         0         0
         0         0         0         0         0         0         0         0
         0         0         0         0         0         0         0         0
         0         0         0         0         0         0         0         0
         0         0         0         0         0         0         0         0
         0         0         0         0         0         0         0         0
         0         0         0         0         0         0         0         0
         0         0         0         0         0         0         0         0
         0         0         0         0         0         0         0         0
         0         0         0         0         0         0         0         0
         0         0         0         0         0         0         0         0
         0         0         0         0         0         0         0         0
         0         0         0         0         0         0         0         0
         0         0         0         0         0         0         0         0
         0         0         0         0         0         0         0         0
         0         0         0         0         0         0         0         0
         0         0         0         0         0         0         0         0
         0         0         0         0         0         0         0         0
         0         0         0         0         0         0         0         0
         0         0         0         0         0         0         0         0
         0         0         0         0         0         0         0         0
         0         0         0         0         0         0         0         0
         0         0         0         0         0         0         0         0
         0         0         0         0         0         0         0         0
         0         0         0         0         0         0         0         0
         0         0         0         0         0         0         0         0
         0         0         0         0         0         0         0         0
         0         0         0         0         0         0         0         0
         0         0         0         0         0         0         0         0
         0         0         0         0         0         0         0         0
         0         0         0         0         0         0         0         0
         0         0         0         0         0         0         0         0
         0         0         0         0         0         0         0         0
         0         0         0         0         0         0         0         0
         0         0         0         0         0         0         0         0
         0         0         0         0         0         0         0         0
         0         0         0         0         0         0         0         0
         0         0         0         0         0         0         0         0
         0         0         0         0         0         0         0         0
         0         0         0         0         0         0         0         0
         0         0         0         0         0         0         0         0
         0         0         0         0         0         0         0         0
         0         0         0         0         0         0         0         0
         0         0         0         0         0         0         0         0
         0         0         0         0         0         0         0         0
         0         0         0         0         0         0         0         0
         0         0         0         0         0         0         0         0
         0         0         0         0         0         0         0         0
         0         0         0         0         0         0         0         0
         0         0         0         0         0         0         0         0
         0         0         0         0         0         0         0         0
         0         0         0         0         0         0         0         0
         0         0         0         0         0         0         0         0
         0         0         0         0         0         0         0         0
         0         0         0         0         0         0         0         0
         0         0         0         0         0         0         0         0
         0         0         0         0         0         0         0         0
         0         0         0         0         0         0         0         0
         0         0         0         0         0         0         0         0
         0         0         0         0         0         0         0         0
         0         0         0         0         0         0         0         0
         0         0         0         0         0         0         0         0
         0         0         0         0         0         0         0         0
         0         0         0         0         0         0         0         0
         0         0         0         0         0         0         0         0
         0         0         0         0         0         0         0         0
         0         0         0         0         0         0         0         0
         0         0         0         0         0         0         0         0
         0         0         0         0         0         0         0         0
         0         0         0         0         0         0         0         0
         0         0         0         0         0         0         0         0
         0         0         0         0         0         0         0         0
         0         0         0         0         0         0         0         0
         0         0         0         0         0         0         0         0
         0         0         0         0         0         0         0         0
         0         0         0         0         0         0         0         0
         0         0         0         0         0         0         0         0
         0         0         0         0         0         0         0         0
         0         0         0         0         0         0         0         0
         0         0         0         0         0         0         0         0
         0         0         0         0         0         0         0         0
         0         0         0         0         0         0         0         0
         0         0         0         0         0         0         0         0
         0         0         0         0         0         0         0         0
         0         0         0         0         0         0         0         0
         0         0         0         0         0         0         0         0
         0         0         0         0         0         0         0         0
         0         0         0         0         0         0         0         0
         0         0         0         0         0         0         0         0
         0         0         0         0         0         0         0         0
         0         0         0         0         0         0         0         0
         0         0         0         0         0         0         0         0
         0         0         0         0         0         0         0         0
         0         0         0         0         0         0         0         0
         0         0         0         0         0         0         0         0
         0         0         0         0         0         0         0         0
         0         0         0         0         0         0         0         0
         0         0         0         0         0         0         0         0
         0         0         0         0         0         0         0         0
         0         0         0         0         0         0         0         0
         0         0         0         0         0         0         0         0
         0         0         0         0         0         0         0         0
         0         0         0         0         0         0         0         0
         0         0         0         0         0         0         0         0
         0         0         0         0         0         0         0         0
         0         0         0         0         0         0         0         0
         0         0         0         0         0         0         0         0
         0         0         0         0         0         0         0         0
         0         0         0         0         0         0         0         0
         0         0         0         0         0         0         0         0
         0         0         0         0         0         0         0         0
         0         0         0         0         0         0         0         0
         0         0         0         0         0         0         0         0
         0         0         0         0         0         0         0         0
         0         0         0         0         0         0         0         0
         0         0         0         0         0         0         0         0
         0         0         0         0         0         0         0         0
         0         0         0         0         0         0         0         0
         0         0         0         0         0         0         0         0
         0         0         0         0         0         0         0         0
         0         0         0         0         0         0         0         0
         0         0         0         0         0         0         0         0
         0         0         0         0         0         0         0         0
         0         0         0         0         0         0         0         0
         0         0         0         0         0         0         0         0
         0         0         0         0         0         0         0         0
         0         0         0         0         0         0         0         0
         0         0         0         0         0         0         0         0
         0         0         0         0         0         0         0         0
         0         0         0         0         0         0         0         0
         0         0         0         0         0         0         0         0
         0         0         0         0         0         0         0         0
         0         0         0         0         0         0         0         0
         0         0         0         0         0         0         0         0
         0         0         0         0         0         0         0         0
         0         0         0         0         0         0         0         0
         0         0         0         0         0         0         0         0
         0         0         0         0         0         0         0         0
         0         0         0         0         0         0         0         0
         0         0         0         0         0         0         0         0
         0         0         0         0         0         0         0         0
         0         0         0         0         0         0         0         0
         0         0         0         0         0         0         0         0
         0         0         0         0         0         0         0         0
         0         0         0         0         0         0         0         0
         0         0         0         0         0         0         0         0
         0         0         0         0         0         0         0         0
         0         0         0         0         0         0         0         0
         0         0         0         0         0         0         0         0
         0         0         0         0         0         0         0         0
         0         0         0         0         0         0         0         0
         0         0         0         0         0         0         0         0
         0         0         0         0         0         0         0         0
         0         0         0         0         0         0         0         0
         0         0         0         0         0         0         0         0
         0         0         0         0         0         0         0         0
         0         0         0         0         0         0         0         0
         0         0         0         0         0         0         0         0
         0         0         0         0         0         0         0         0
         0         0         0         0         0         0         0         0
         0         0         0         0         0         0         0         0
         0         0         0         0         0         0         0         0
         0         0         0         0         0         0         0         0
         0         0         0         0         0         0         0         0
         0         0         0         0         0         0         0         0
         0         0         0         0         0         0         0         0
         0         0         0         0         0         0         0         0
         0         0         0         0         0         0         0         0
         0         0         0         0         0         0         0         0
         0         0         0         0         0         0         0         0
         0         0         0         0         0         0         0         0
         0         0         0         0         0         0         0         0
         0         0         0         0         0         0         0         0
         0         0         0         0         0         0         0         0
         0         0         0         0         0         0         0         0
         0         0         0         0         0         0         0         0
         0         0         0         0         0         0         0         0
         0         0         0         0         0         0         0         0
         0         0         0         0         0         0         0         0
         0         0         0         0         0         0         0         0
         0         0         0         0         0         0         0         0
         0         0         0         0         0         0         0         0
         0         0         0         0         0         0         0         0
         0         0         0         0         0         0         0         0
         0         0         0         0         0         0         0         0
         0         0         0         0         0         0         0         0
         0         0         0         0         0         0         0         0
         0         0         0         0         0         0         0         0
         0         0         0         0         0         0         0         0
         0         0         0         0         0         0         0         0
         0         0         0         0         0         0         0         0
         0         0         0         0         0         0         0         0
         0         0         0         0         0         0         0         0
         0         0         0         0         0         0         0         0
         0         0         0         0         0         0         0         0
         0         0         0         0         0         0         0         0
         0         0         0         0         0         0         0         0
         0         0         0         0         0         0         0         0
         0         0         0         0         0         0         0         0
         0         0         0         0         0         0         0         0
         0         0         0         0         0         0         0         0
         0         0         0         0         0         0         0         0
         0         0         0         0         0         0         0         0
         0         0         0         0         0         0         0         0
         0         0         0         0         0         0         0         0
         0         0         0         0         0         0         0         0
         0         0         0         0         0         0         0         0
         0         0         0         0         0         0         0         0
         0         0         0         0         0         0         0         0
         0         0         0         0         0         0         0         0
         0         0         0         0         0         0         0         0
         0         0         0         0         0         0         0         0
         0         0         0         0         0         0         0         0
         0         0         0         0         0         0         0         0
         0         0         0         0         0         0         0         0
         0         0         0         0         0         0         0         0
         0         0         0         0         0         0         0         0
         0         0         0         0         0         0         0         0
         0         0         0         0         0         0         0         0
         0         0         0         0         0         0         0         0
         0         0         0         0         0         0         0         0
         0         0         0         0         0         0         0         0
         0         0         0         0         0         0         0         0
         0         0         0         0         0         0         0         0
         0         0         0         0         0         0         0         0
         0         0         0         0         0         0         0         0
         0         0         0         0         0         0         0         0
         0         0         0         0         0         0         0         0
         0         0         0         0         0         0         0         0
         0         0         0         0         0         0         0         0
         0         0         0         0         0         0         0         0
         0         0         0         0         0         0         0         0
         0         0         0         0         0         0         0         0
         0         0         0         0         0         0         0         0
         0         0         0         0         0         0         0         0
         0         0         0         0         0         0         0         0
         0         0         0         0         0         0         0         0
         0         0         0         0         0         0         0         0
         0         0         0         0         0         0         0         0
         0         0         0         0         0         0         0         0
         0         0         0         0         0         0         0         0
         0         0         0         0         0         0         0         0
         0         0         0         0         0         0         0         0
         0         0         0         0         0         0         0         0
         0         0         0         0         0         0         0         0
         0         0         0         0         0         0         0         0
         0         0         0         0         0         0         0         0
         0         0         0         0         0         0         0         0
         0         0         0         0         0         0         0         0
         0         0         0         0         0         0         0         0
         0         0         0         0         0         0         0         0
         0         0         0         0         0         0         0         0
         0         0         0         0         0         0         0         0
         0         0         0         0         0         0         0         0
         0         0         0         0         0         0         0         0
         0         0         0         0         0         0         0         0
         0         0         0         0         0         0         0         0
         0         0         0         0         0         0         0         0
         0         0         0         0         0         0         0         0
         0         0         0         0         0         0         0         0
         0         0         0         0         0         0         0         0
         0         0         0         0         0         0         0         0
         0         0         0         0         0         0         0         0
         0         0         0         0         0         0         0         0
         0         0         0         0         0         0         0         0
         0         0         0         0         0         0         0         0
         0         0         0         0         0         0         0         0
         0         0         0         0         0         0         0         0
         0         0         0         0         0         0         0         0
         0         0         0         0         0         0         0         0
         0         0         0         0         0         0         0         0
         0         0         0         0         0         0         0         0
         0         0         0         0         0         0         0         0
         0         0         0         0         0         0         0         0
         0         0         0         0         0         0         0         0
         0         0         0         0         0         0         0         0
         0         0         0         0         0         0         0         0
         0         0         0         0         0         0         0         0
         0         0         0         0         0         0         0         0
         0         0         0         0         0         0         0         0
         0         0         0         0         0         0         0         0
         0         0         0         0         0         0         0         0
         0         0         0         0         0         0         0         0
         0         0         0         0         0         0         0         0
         0         0         0         0         0         0         0         0
         0         0         0         0         0         0         0         0
         0         0         0         0         0         0         0         0
         0         0         0         0         0         0         0         0
         0         0         0         0         0         0         0         0
         0         0         0         0         0         0         0         0
         0         0         0         0         0         0         0         0
         0         0         0         0         0         0         0         0
         0         0         0         0         0         0         0         0
         0         0         0         0         0         0         0         0
         0         0         0         0         0         0         0         0
         0         0         0         0         0         0         0         0
         0         0         0         0         0         0         0         0
         0         0         0         0         0         0         0         0
         0         0         0         0         0         0         0         0
         0         0         0         0         0         0         0         0
         0         0         0         0         0         0         0         0
         0         0         0         0         0         0         0         0
         0         0         0         0         0         0         0         0
         0         0         0         0         0         0         0         0
         0         0         0         0         0         0         0         0
         0         0         0         0         0         0         0         0
         0         0         0         0         0         0         0         0
         0         0         0         0         0         0         0         0
         0         0         0         0         0         0         0         0
         0         0         0         0         0         0         0         0
         0         0         0         0         0         0         0         0
         0         0         0         0         0         0         0         0
         0         0         0         0         0         0         0         0
         0         0         0         0         0         0         0         0
         0         0         0         0         0         0         0         0
         0         0         0         0         0         0         0         0
         0         0         0         0         0         0         0         0
         0         0         0         0         0         0         0         0
         0         0         0         0         0         0         0         0
         0         0         0         0         0         0         0         0
         0         0         0         0         0         0         0         0
         0         0         0         0         0         0         0         0
         0         0         0         0         0         0         0         0
         0         0         0         0         0         0         0         0
         0         0         0         0         0         0         0         0
         0         0         0         0         0         0         0         0
         0         0         0         0         0         0         0         0
         0         0         0         0         0         0         0         0
         0         0         0         0         0         0         0         0
         0         0         0         0         0         0         0         0
         0         0         0         0         0         0         0         0
         0         0         0         0         0         0         0         0
         0         0         0         0         0         0         0         0
         0         0         0         0         0         0         0         0
         0         0         0         0         0         0         0         0
         0         0         0         0         0         0         0         0
         0         0         0         0         0         0         0         0
         0         0         0         0         0         0         0         0
         0         0         0         0         0         0         0         0
         0         0         0         0         0         0         0         0
         0         0         0         0         0         0         0         0
         0         0         0         0         0         0         0         0
         0         0         0         0         0         0         0         0
         0         0         0         0         0         0         0         0
         0         0         0         0         0         0         0         0
         0         0         0         0         0         0         0         0
         0         0         0         0         0         0         0         0
         0         0         0         0         0         0         0         0
         0         0         0         0         0         0         0         0
         0         0         0         0         0         0         0         0
         0         0         0         0         0         0         0         0
         0         0         0         0         0         0         0         0
         0         0         0         0         0         0         0         0
         0         0         0         0         0         0         0         0
         0         0         0         0         0         0         0         0
         0         0         0         0         0         0         0         0
         0         0         0         0         0         0         0         0
         0         0         0         0         0         0         0         0
         0         0         0         0         0         0         0         0
         0         0         0         0         0         0         0         0
         0         0         0         0         0         0         0         0
         0         0         0         0         0         0         0         0
         0         0         0         0         0         0         0         0
         0         0         0         0         0         0         0         0
         0         0         0         0         0         0         0         0
         0         0         0         0         0         0         0         0
         0         0         0         0         0         0         0         0
         0         0         0         0         0         0         0         0
         0         0         0         0         0         0         0         0
         0         0         0         0         0         0         0         0
         0         0         0         0         0         0         0         0
         0         0         0         0         0         0         0         0
         0         0         0         0         0         0         0         0
         0         0         0         0         0         0         0         0
         0         0         0         0         0         0         0         0
         0         0         0         0         0         0         0         0
         0         0         0         0         0         0         0         0
         0         0         0         0         0         0         0         0
         0         0         0         0         0         0         0         0
         0         0         0         0         0         0         0         0
         0         0         0         0         0         0         0         0
         0         0         0         0         0         0         0         0
         0         0         0         0         0         0         0         0
         0         0         0         0         0         0         0         0
         0         0         0         0         0         0         0         0
         0         0         0         0         0         0         0         0
         0         0         0         0         0         0         0         0
         0         0         0         0         0         0         0         0
         0         0         0         0         0         0         0         0
         0         0         0         0         0         0         0         0
         0         0         0         0         0         0         0         0
         0         0         0         0         0         0         0         0
         0         0         0         0         0         0         0         0
         0         0         0         0         0         0         0         0
         0         0         0         0         0         0         0         0
         0         0         0         0         0         0         0         0
         0         0         0         0         0         0         0         0
         0         0         0         0         0         0         0         0
         0         0         0         0         0         0         0         0
         0         0         0         0         0         0         0         0
         0         0         0         0         0         0         0         0
         0         0         0         0         0         0         0         0
         0         0         0         0         0         0         0         0
         0         0         0         0         0         0         0         0
         0         0         0         0         0         0         0         0
         0         0         0         0         0         0         0         0
         0         0         0         0         0         0         0         0
         0         0         0         0         0         0         0         0
         0         0         0         0         0         0         0         0
         0         0         0         0         0         0         0         0
         0         0         0         0         0         0         0         0
         0         0         0         0         0         0         0         0
         0         0         0         0         0         0         0         0
         0         0         0         0         0         0         0         0
         0         0         0         0         0         0         0         0
         0         0         0         0         0         0         0         0
         0         0         0         0         0         0         0         0
         0         0         0         0         0         0         0         0
         0         0         0         0         0         0         0         0
         0         0         0         0         0         0         0         0
         0         0         0         0         0         0         0         0
         0         0         0         0         0         0         0         0
         0         0         0         0         0         0         0         0
         0         0         0         0         0         0         0         0
         0         0         0         0         0         0         0         0
         0         0         0         0         0         0         0         0
         0         0         0         0         0         0         0         0
         0         0         0         0         0         0         0         0
         0         0         0         0         0         0         0         0
         0         0         0         0         0         0         0         0
         0         0         0         0         0         0         0         0
         0         0         0         0         0         0         0         0
         0         0         0         0         0         0         0         0
         0         0         0         0         0         0         0         0
         0         0         0         0         0         0         0         0
         0         0         0         0         0         0         0         0
         0         0         0         0         0         0         0         0
         0         0         0         0         0         0         0         0
         0         0         0         0         0         0         0         0
         0         0         0         0         0         0         0         0
         0         0         0         0         0         0         0         0
         0         0         0         0         0         0         0         0
         0         0         0         0         0         0         0         0
         0         0         0         0         0         0         0         0
         0         0         0         0         0         0         0         0
         0         0         0         0         0         0         0         0
         0         0         0         0         0         0         0         0
         0         0         0         0         0         0         0         0
         0         0         0         0         0         0         0         0
         0         0         0         0         0         0         0         0
         0         0         0         0         0         0         0         0
         0         0         0         0         0         0         0         0
         0         0         0         0         0         0         0         0
         0         0         0         0         0         0         0         0
         0         0         0         0         0         0         0         0
         0         0         0         0         0         0         0         0
         0         0         0         0         0         0         0         0
         0         0         0         0         0         0         0         0
         0         0         0         0         0         0         0         0
         0         0         0         0         0         0         0         0
         0         0         0         0         0         0         0         0
         0         0         0         0         0         0         0         0
         0         0         0         0         0         0         0         0
         0         0         0         0         0         0         0         0
         0         0         0         0         0         0         0         0
         0         0         0         0         0         0         0         0
         0         0         0         0         0         0         0         0
         0         0         0         0         0         0         0         0
         0         0         0         0         0         0         0         0
         0         0         0         0         0         0         0         0
         0         0         0         0         0         0         0         0
         0         0         0         0         0         0         0         0
         0         0         0         0         0         0         0         0
         0         0         0         0         0         0         0         0
         0         0         0         0         0         0         0         0
         0         0         0         0         0         0         0         0
         0         0         0         0         0         0         0         0
         0         0         0         0         0         0         0         0
         0         0         0         0         0         0         0         0
         0         0         0         0         0         0         0         0
         0         0         0         0         0         0         0         0
         0         0         0         0         0         0         0         0
         0         0         0         0         0         0         0         0
         0         0         0         0         0         0         0         0
         0         0         0         0         0         0         0         0
         0         0         0         0         0         0         0         0
         0         0         0         0         0         0         0         0
         0         0         0         0         0         0         0         0
         0         0         0         0         0         0         0         0
         0         0         0         0         0         0         0         0
         0         0         0         0         0         0         0         0
         0         0         0         0         0         0         0         0
         0         0         0         0         0         0         0         0
         0         0         0         0         0         0         0         0
         0         0         0         0         0         0         0         0
         0         0         0         0         0         0         0         0
         0         0         0         0         0         0         0         0
         0         0         0         0         0         0         0         0
         0         0         0         0         0         0         0         0
         0         0         0         0         0         0         0         0
         0         0         0         0         0         0         0         0
         0         0         0         0         0         0         0         0
         0         0         0         0         0         0         0         0
         0         0         0         0         0         0         0         0
         0         0         0         0         0         0         0         0
         0         0         0         0         0         0         0         0
         0         0         0         0         0         0         0         0
         0         0         0         0         0         0         0         0
         0         0         0         0         0         0         0         0
         0         0         0         0         0         0         0         0
         0         0         0         0         0         0         0         0
         0         0         0         0         0         0         0         0
         0         0         0         0         0         0         0         0
         0         0         0         0         0         0         0         0
         0         0         0         0         0         0         0         0
         0         0         0         0         0         0         0         0
         0         0         0         0         0         0         0         0
         0         0         0         0         0         0         0         0
         0         0         0         0         0         0         0         0
         0         0         0         0         0         0         0         0
         0         0         0         0         0         0         0         0
         0         0         0         0         0         0         0         0
         0         0         0         0         0         0         0         0
         0         0         0         0         0         0         0         0
         0         0         0         0         0         0         0         0
         0         0         0         0         0         0         0         0
         0         0         0         0         0         0         0         0
         0         0         0         0         0         0         0         0
         0         0         0         0         0         0         0         0
         0         0         0         0         0         0         0         0
         0         0         0         0         0         0         0         0
         0         0         0         0         0         0         0         0
         0         0         0         0         0         0         0         0
         0         0         0         0         0         0         0         0
         0         0         0         0         0         0         0         0
         0         0         0         0         0         0         0         0
         0         0         0         0         0         0         0         0
         0         0         0         0         0         0         0         0
         0         0         0         0         0         0         0         0
         0         0         0         0         0         0         0         0
         0         0         0         0         0         0         0         0
         0         0         0         0         0         0         0         0
         0         0         0         0         0         0         0         0
         0         0         0         0         0         0         0         0
         0         0         0         0         0         0         0         0
         0         0         0         0         0         0         0         0
         0         0         0         0         0         0         0         0
         0         0         0         0         0         0         0         0
         0         0         0         0         0         0         0         0
         0         0         0         0         0         0         0         0
         0         0         0         0         0         0         0         0
         0         0         0         0         0         0         0         0
         0         0         0         0         0         0         0         0
         0         0         0         0         0         0         0         0
         0         0         0         0         0         0         0         0
         0         0         0         0         0         0         0         0

      6496         0 !NGRP NST2
         0         1         0         4         1         0         7         1         0
        10         1         0        13         1         0        15         1         0
        17         1         0        20         1         0        23         1         0
        25         0         0        26         1         0        30         1         0
        33         1         0        36         1         0        38         0         0
        39         1         0        43         1         0        46         1         0
        49         1         0        51         1         0        55         1         0
        58         1         0        61         1         0        64         1         0
        66         1         0        70         1         0        74         2         0
        90         2         0       101         1         0       109         1         0
       118         1         0       121         1         0       124         1         0
       127         1         0       130         1         0       133         1         0
       136         1         0       138         1         0       140         1         0
       143         1         0       145         1         0       147         1         0
       150         1         0       153         1         0       156         1         0
       159         1         0       163         1         0       166         1         0
       169         1         0       172         1         0       175         1         0
       178         1         0       181         1         0       184         1         0
       187         1         0       190         1         0       193         1         0
       196         1         0       199         1         0       202         1         0
       205         1         0       208         1         0       212         2         0
       228         2         0       239         1         0       247         1         0
       256         1         0       259         1         0       262         1         0
       265         1         0       268         1         0       271         1         0
       274         1         0       276         1         0       278         1         0
       281         1         0       284         1         0       287         1         0
       290         1         0       293         1         0       296         1         0
       299         1         0       303         1         0       306         1         0
       309         1         0       312         1         0       315         1         0
       318         1         0       321         1         0       324         1         0
       327         1         0       330         1         0       333         1         0
       336         1         0       339         1         0       342         1         0
       346         2         0       362         2         0       373         1         0
       381         1         0       390         1         0       393         1         0
       396         1         0       399         1         0       402         1         0
       405         1         0       408         1         0       410         1         0
       412         1         0       415         1         0       417         1         0
       419         1         0       422         1         0       425         1         0
       428         1         0       431         1         0       435         1         0
       438         1         0       441         1         0       444         1         0
       447         1         0       450         1         0       453         1         0
       456         1         0       459         1         0       462         1         0
       465         1         0       468         1         0       471         1         0
       474         1         0       477         1         0       480         1         0
       484         2         0       500         2         0       511         1         0
       515         1         0       519         1         0       521         1         0
       523         1         0       526         1         0       529         1         0
       532         1         0       535         1         0       538         1         0
       541         1         0       544         1         0       547         1         0
       550         1         0       553         1         0       556         1         0
       559         1         0       563         1         0       568         1         0
       571         1         0       574         1         0       577         1         0
       580         1         0       583         1         0       586         1         0
       588         1         0       590         1         0       593         1         0
       596         1         0       599         1         0       602         1         0
       605         1         0       608         1         0       611         1         0
       615         1         0       619         1         0       622         1         0
       625         1         0       628         1         0       630         1         0
       632         1         0       635         1         0       638         1         0
       640         0         0       641         1         0       645         1         0
       648         1         0       651         1         0       653         0         0
       654         1         0       658         1         0       661         1         0
       664         1         0       666         1         0       670         1         0
       673         1         0       676         1         0       679         1         0
       681         1         0       685         1         0       689         2         0
       705         2         0       716         1         0       720         1         0
       724         1         0       726         1         0       728         1         0
       731         1         0       734         1         0       737         1         0
       740         1         0       743         1         0       746         1         0
       749         1         0       752         1         0       755         1         0
       758         1         0       761         1         0       764         1         0
       768         1         0       773         1         0       776         1         0
       779         1         0       782         1         0       785         1         0
       788         1         0       791         1         0       793         1         0
       795         1         0       798         1         0       801         1         0
       804         1         0       807         1         0       810         1         0
       813         1         0       816         1         0       820         1         0
       824         1         0       827         1         0       830         1         0
       833         1         0       835         1         0       837         1         0
       840         1         0       843         1         0       845         0         0
       846         1         0       850         1         0       853         1         0
       856         1         0       858         0         0       859         1         0
       863         1         0       866         1         0       869         1         0
       871         1         0       875         1         0       878         1         0
       881         1         0       884         1         0       886         1         0
       890         1         0       894         2         0       910         2         0
       921         1         0       925         1         0       929         1         0
       931         1         0       933         1         0       936         1         0
       939         1         0       942         1         0       945         1         0
       948         1         0       951         1         0       954         1         0
       957         1         0       960         1         0       963         1         0
       966         1         0       969         1         0       973         1         0
       978         1         0       981         1         0       984         1         0
       987         1         0       990         1         0       993         1         0
       996         1         0       998         1         0      1000         1         0
      1003         1         0      1006         1         0      1009         1         0
      1012         1         0      1015         1         0      1018         1         0
      1021         1         0      1025         2         0      1041         2         0
      1052         1         0      1056         1         0      1060         1         0
      1062         1         0      1064         1         0      1067         1         0
      1070         1         0      1073         1         0      1076         1         0
      1079         1         0      1082         1         0      1085         1         0
      1088         1         0      1091         1         0      1094         1         0
      1097         1         0      1100         1         0      1104         1         0
      1109         1         0      1112         1         0      1115         1         0
      1118         1         0      1121         1         0      1124         1         0
      1127         1         0      1129         1         0      1131         1         0
      1134         1         0      1137         1         0      1140         1         0
      1143         1         0      1146         1         0      1149         1         0
      1152         1         0      1156         1         0      1160         1         0
      1163         1         0      1166         1         0      1169         1         0
      1171         1         0      1173         1         0      1176         1         0
      1179         1         0      1181         0         0      1182         1         0
      1186         1         0      1189         1         0      1192         1         0
      1194         0         0      1195         1         0      1199         1         0
      1202         1         0      1205         1         0      1207         1         0
      1211         1         0      1214         1         0      1217         1         0
      1220         1         0      1222         1         0      1226         1         0
      1230         1         0      1234         1         0      1237         1         0
      1240         1         0      1243         1         0      1245         1         0
      1247         1         0      1250         1         0      1253         1         0
      1255         0         0      1256         1         0      1260         1         0
      1263         1         0      1266         1         0      1268         0         0
      1269         1         0      1273         1         0      1276         1         0
      1279         1         0      1281         1         0      1285         1         0
      1288         1         0      1291         1         0      1294         1         0
      1296         1         0      1300         1         0      1304         2         0
      1320         2         0      1331         1         0      1339         1         0
      1348         1         0      1351         1         0      1354         1         0
      1356         1         0      1358         1         0      1361         1         0
      1363         1         0      1365         1         0      1368         1         0
      1370         1         0      1372         1         0      1375         1         0
      1377         1         0      1379         1         0      1382         1         0
      1385         2         0      1388         1         0      1391         2         0
      1395         1         0      1398         1         0      1401         1         0
      1404         1         0      1407         1         0      1410         1         0
      1413         1         0      1416         1         0      1419         1         0
      1422         1         0      1425         1         0      1428         1         0
      1431         1         0      1434         1         0      1437         1         0
      1440         1         0      1444         2         0      1460         2         0
      1471         1         0      1479         1         0      1488         1         0
      1491         1         0      1494         1         0      1497         1         0
      1500         1         0      1503         1         0      1506         1         0
      1508         1         0      1510         1         0      1513         1         0
      1515         1         0      1517         1         0      1520         1         0
      1523         1         0      1526         1         0      1529         1         0
      1533         1         0      1536         1         0      1539         1         0
      1542         1         0      1545         1         0      1548         1         0
      1551         1         0      1554         1         0      1557         1         0
      1560         1         0      1563         1         0      1566         1         0
      1569         1         0      1572         1         0      1575         1         0
      1578         1         0      1582         2         0      1598         2         0
      1609         1         0      1617         1         0      1626         1         0
      1629         1         0      1632         1         0      1635         1         0
      1638         1         0      1641         1         0      1644         1         0
      1646         1         0      1648         1         0      1651         1         0
      1654         1         0      1657         1         0      1660         1         0
      1663         1         0      1666         1         0      1669         1         0
      1673         1         0      1676         1         0      1679         1         0
      1682         1         0      1685         1         0      1688         1         0
      1691         1         0      1694         1         0      1697         1         0
      1700         1         0      1703         1         0      1706         1         0
      1709         1         0      1712         1         0      1716         2         0
      1723         2         0      1734         1         0      1742         1         0
      1751         1         0      1754         1         0      1757         1         0
      1760         1         0      1763         1         0      1766         1         0
      1769         1         0      1771         1         0      1773         1         0
      1776         1         0      1779         1         0      1782         1         0
      1785         1         0      1788         1         0      1791         1         0
      1794         1         0      1798         1         0      1801         1         0
      1804         1         0      1807         1         0      1810         1         0
      1813         1         0      1816         1         0      1819         1         0
      1822         1         0      1825         1         0      1828         1         0
      1831         1         0      1834         1         0      1837         1         0
      1840         1         0      1843         1         0      1847         2         0
      1854         2         0      1865         1         0      1873         1         0
      1882         1         0      1885         1         0      1888         1         0
      1890         1         0      1892         1         0      1895         1         0
      1897         1         0      1899         1         0      1902         1         0
      1904         1         0      1906         1         0      1909         1         0
      1911         1         0      1913         1         0      1916         1         0
      1919         1         0      1922         1         0      1925         1         0
      1929         1         0      1932         1         0      1935         1         0
      1938         1         0      1941         1         0      1944         1         0
      1947         1         0      1950         1         0      1953         1         0
      1956         1         0      1959         1         0      1962         1         0
      1965         1         0      1968         1         0      1971         1         0
      1974         1         0      1978         1         0      1982         1         0
      1985         1         0      1988         1         0      1991         1         0
      1993         1         0      1995         1         0      1998         1         0
      2001         1         0      2003         0         0      2004         1         0
      2008         1         0      2011         1         0      2014         1         0
      2016         0         0      2017         1         0      2021         1         0
      2024         1         0      2027         1         0      2029         1         0
      2033         1         0      2036         1         0      2039         1         0
      2042         1         0      2044         1         0      2048         1         0
      2052         2         0      2068         2         0      2079         1         0
      2083         1         0      2087         1         0      2089         1         0
      2091         1         0      2094         1         0      2097         1         0
      2100         1         0      2103         1         0      2106         1         0
      2109         1         0      2112         1         0      2115         1         0
      2118         1         0      2121         1         0      2124         1         0
      2127         1         0      2131         1         0      2136         1         0
      2139         1         0      2142         1         0      2145         1         0
      2148         1         0      2151         1         0      2154         1         0
      2156         1         0      2158         1         0      2161         1         0
      2164         1         0      2167         1         0      2170         1         0
      2173         1         0      2176         1         0      2179         1         0
      2183         1         0      2187         1         0      2190         1         0
      2193         1         0      2196         1         0      2198         1         0
      2200         1         0      2203         1         0      2206         1         0
      2208         0         0      2209         1         0      2213         1         0
      2216         1         0      2219         1         0      2221         0         0
      2222         1         0      2226         1         0      2229         1         0
      2232         1         0      2234         1         0      2238         1         0
      2241         1         0      2244         1         0      2247         1         0
      2249         1         0      2253         1         0      2257         1         0
      2261         1         0      2264         1         0      2267         1         0
      2270         1         0      2272         1         0      2274         1         0
      2277         1         0      2280         1         0      2282         0         0
      2283         1         0      2287         1         0      2290         1         0
      2293         1         0      2295         0         0      2296         1         0
      2300         1         0      2303         1         0      2306         1         0
      2308         1         0      2312         1         0      2315         1         0
      2318         1         0      2321         1         0      2323         1         0
      2327         1         0      2331         1         0      2335         1         0
      2338         1         0      2341         1         0      2344         1         0
      2346         1         0      2348         1         0      2351         1         0
      2354         1         0      2356         0         0      2357         1         0
      2361         1         0      2364         1         0      2367         1         0
      2369         0         0      2370         1         0      2374         1         0
      2377         1         0      2380         1         0      2382         1         0
      2386         1         0      2389         1         0      2392         1         0
      2395         1         0      2397         1         0      2401         1         0
      2405         2         0      2411         2         0      2414         2         0
      2425         1         0      2433         1         0      2442         1         0
      2445         1         0      2448         1         0      2450         1         0
      2452         1         0      2455         1         0      2457         1         0
      2459         1         0      2462         1         0      2464         1         0
      2466         1         0      2469         1         0      2471         1         0
      2473         1         0      2476         1         0      2479         1         0
      2482         1         0      2485         1         0      2489         1         0
      2492         1         0      2495         1         0      2498         1         0
      2501         1         0      2504         1         0      2507         1         0
      2510         1         0      2513         1         0      2516         1         0
      2519         1         0      2522         1         0      2525         1         0
      2528         1         0      2531         1         0      2534         1         0
      2538         1         0      2542         1         0      2545         1         0
      2548         1         0      2551         1         0      2553         1         0
      2555         1         0      2558         1         0      2561         1         0
      2563         0         0      2564         1         0      2568         1         0
      2571         1         0      2574         1         0      2576         0         0
      2577         1         0      2581         1         0      2584         1         0
      2587         1         0      2589         1         0      2593         1         0
      2596         1         0      2599         1         0      2602         1         0
      2604         1         0      2608         1         0      2612         2         0
      2628         2         0      2639         1         0      2647         1         0
      2656         1         0      2659         1         0      2662         1         0
      2664         1         0      2666         1         0      2669         1         0
      2671         1         0      2673         1         0      2676         1         0
      2678         1         0      2680         1         0      2683         1         0
      2685         1         0      2687         1         0      2690         1         0
      2693         2         0      2696         1         0      2699         2         0
      2703         1         0      2706         1         0      2709         1         0
      2712         1         0      2715         1         0      2718         1         0
      2721         1         0      2724         1         0      2727         1         0
      2730         1         0      2733         1         0      2736         1         0
      2739         1         0      2742         1         0      2745         1         0
      2748         1         0      2752         1         0      2756         1         0
      2759         1         0      2762         1         0      2765         1         0
      2767         1         0      2769         1         0      2772         1         0
      2775         1         0      2777         0         0      2778         1         0
      2782         1         0      2785         1         0      2788         1         0
      2790         0         0      2791         1         0      2795         1         0
      2798         1         0      2801         1         0      2803         1         0
      2807         1         0      2810         1         0      2813         1         0
      2816         1         0      2818         1         0      2822         1         0
      2826         1         0      2830         1         0      2834         1         0
      2838         1         0      2842         1         0      2846         2         0
      2856         1         0      2864         1         0      2873         1         0
      2876         1         0      2879         1         0      2881         1         0
      2883         1         0      2886         1         0      2888         1         0
      2890         1         0      2893         1         0      2895         1         0
      2897         1         0      2900         1         0      2902         1         0
      2904         1         0      2907         1         0      2910         1         0
      2913         1         0      2916         1         0      2920         1         0
      2923         1         0      2926         1         0      2929         1         0
      2932         1         0      2935         1         0      2938         1         0
      2941         1         0      2944         1         0      2947         1         0
      2950         1         0      2953         1         0      2956         1         0
      2959         1         0      2962         1         0      2965         1         0
      2969         1         0      2973         1         0      2976         1         0
      2979         1         0      2982         1         0      2984         1         0
      2986         1         0      2989         1         0      2992         1         0
      2994         0         0      2995         1         0      2999         1         0
      3002         1         0      3005         1         0      3007         0         0
      3008         1         0      3012         1         0      3015         1         0
      3018         1         0      3020         1         0      3024         1         0
      3027         1         0      3030         1         0      3033         1         0
      3035         1         0      3039         1         0      3043         2         0
      3050         2         0      3061         1         0      3069         1         0
      3078         1         0      3081         1         0      3084         1         0
      3086         1         0      3088         1         0      3091         1         0
      3093         1         0      3095         1         0      3098         1         0
      3100         1         0      3102         1         0      3105         1         0
      3107         1         0      3109         1         0      3112         1         0
      3115         1         0      3118         1         0      3121         1         0
      3125         1         0      3128         1         0      3131         1         0
      3134         1         0      3137         1         0      3140         1         0
      3143         1         0      3146         1         0      3149         1         0
      3152         1         0      3155         1         0      3158         1         0
      3161         1         0      3164         1         0      3167         1         0
      3170         1         0      3174         2         0      3190         2         0
      3201         1         0      3205         1         0      3209         1         0
      3211         1         0      3213         1         0      3216         1         0
      3219         1         0      3222         1         0      3225         1         0
      3228         1         0      3231         1         0      3234         1         0
      3237         1         0      3240         1         0      3243         1         0
      3246         1         0      3249         1         0      3253         1         0
      3258         1         0      3261         1         0      3264         1         0
      3267         1         0      3270         1         0      3273         1         0
      3276         1         0      3278         1         0      3280         1         0
      3283         1         0      3286         1         0      3289         1         0
      3292         1         0      3295         1         0      3298         1         0
      3301         1         0      3305         1         0      3309         1         0
      3312         1         0      3315         1         0      3318         1         0
      3320         1         0      3322         1         0      3325         1         0
      3328         1         0      3330         0         0      3331         1         0
      3335         1         0      3338         1         0      3341         1         0
      3343         0         0      3344         1         0      3348         1         0
      3351         1         0      3354         1         0      3356         1         0
      3360         1         0      3363         1         0      3366         1         0
      3369         1         0      3371         1         0      3375         1         0
      3379         2         0      3395         2         0      3406         1         0
      3410         1         0      3414         1         0      3416         1         0
      3418         1         0      3421         1         0      3424         1         0
      3427         1         0      3430         1         0      3433         1         0
      3436         1         0      3439         1         0      3442         1         0
      3445         1         0      3448         1         0      3451         1         0
      3454         1         0      3458         1         0      3463         1         0
      3466         1         0      3469         1         0      3472         1         0
      3475         1         0      3478         1         0      3481         1         0
      3483         1         0      3485         1         0      3488         1         0
      3491         1         0      3494         1         0      3497         1         0
      3500         1         0      3503         1         0      3506         1         0
      3510         2         0      3526         2         0      3537         1         0
      3545         1         0      3554         1         0      3557         1         0
      3560         1         0      3563         1         0      3566         1         0
      3569         1         0      3572         1         0      3574         1         0
      3576         1         0      3579         1         0      3581         1         0
      3583         1         0      3586         1         0      3589         1         0
      3592         1         0      3595         1         0      3599         1         0
      3602         1         0      3605         1         0      3608         1         0
      3611         1         0      3614         1         0      3617         1         0
      3620         1         0      3623         1         0      3626         1         0
      3629         1         0      3632         1         0      3635         1         0
      3638         1         0      3641         1         0      3644         1         0
      3648         1         0      3652         1         0      3655         1         0
      3658         1         0      3661         1         0      3663         1         0
      3665         1         0      3668         1         0      3671         1         0
      3673         0         0      3674         1         0      3678         1         0
      3681         1         0      3684         1         0      3686         0         0
      3687         1         0      3691         1         0      3694         1         0
      3697         1         0      3699         1         0      3703         1         0
      3706         1         0      3709         1         0      3712         1         0
      3714         1         0      3718         1         0      3722         1         0
      3726         1         0      3729         1         0      3732         1         0
      3735         1         0      3737         1         0      3739         1         0
      3742         1         0      3745         1         0      3747         0         0
      3748         1         0      3752         1         0      3755         1         0
      3758         1         0      3760         0         0      3761         1         0
      3765         1         0      3768         1         0      3771         1         0
      3773         1         0      3777         1         0      3780         1         0
      3783         1         0      3786         1         0      3788         1         0
      3792         1         0      3796         2         0      3802         2         0
      3805         2         0      3816         1         0      3824         1         0
      3833         1         0      3836         1         0      3839         1         0
      3841         1         0      3843         1         0      3846         1         0
      3848         1         0      3850         1         0      3853         1         0
      3855         1         0      3857         1         0      3860         1         0
      3862         1         0      3864         1         0      3867         1         0
      3870         1         0      3873         1         0      3876         1         0
      3880         1         0      3883         1         0      3886         1         0
      3889         1         0      3892         1         0      3895         1         0
      3898         1         0      3901         1         0      3904         1         0
      3907         1         0      3910         1         0      3913         1         0
      3916         1         0      3919         1         0      3922         1         0
      3925         1         0      3929         2         0      3936         2         0
      3947         1         0      3955         1         0      3964         1         0
      3967         1         0      3970         1         0      3972         1         0
      3974         1         0      3977         1         0      3979         1         0
      3981         1         0      3984         1         0      3986         1         0
      3988         1         0      3991         1         0      3993         1         0
      3995         1         0      3998         1         0      4001         1         0
      4004         1         0      4007         1         0      4011         1         0
      4014         1         0      4017         1         0      4020         1         0
      4023         1         0      4026         1         0      4029         1         0
      4032         1         0      4035         1         0      4038         1         0
      4041         1         0      4044         1         0      4047         1         0
      4050         1         0      4053         1         0      4056         1         0
      4060         1         0      4064         1         0      4067         1         0
      4070         1         0      4073         1         0      4075         1         0
      4077         1         0      4080         1         0      4083         1         0
      4085         0         0      4086         1         0      4090         1         0
      4093         1         0      4096         1         0      4098         0         0
      4099         1         0      4103         1         0      4106         1         0
      4109         1         0      4111         1         0      4115         1         0
      4118         1         0      4121         1         0      4124         1         0
      4126         1         0      4130         1         0      4134         2         0
      4140         2         0      4143         2         0      4154         1         0
      4162         1         0      4171         1         0      4174         1         0
      4177         1         0      4179         1         0      4181         1         0
      4184         1         0      4186         1         0      4188         1         0
      4191         1         0      4193         1         0      4195         1         0
      4198         1         0      4200         1         0      4202         1         0
      4205         1         0      4208         1         0      4211         1         0
      4214         1         0      4218         1         0      4221         1         0
      4224         1         0      4227         1         0      4230         1         0
      4233         1         0      4236         1         0      4239         1         0
      4242         1         0      4245         1         0      4248         1         0
      4251         1         0      4254         1         0      4257         1         0
      4260         1         0      4263         1         0      4267         2         0
      4283         2         0      4294         1         0      4302         1         0
      4311         1         0      4314         1         0      4317         1         0
      4320         1         0      4323         1         0      4326         1         0
      4329         1         0      4331         1         0      4333         1         0
      4336         1         0      4338         1         0      4340         1         0
      4343         1         0      4346         1         0      4349         1         0
      4352         1         0      4356         1         0      4359         1         0
      4362         1         0      4365         1         0      4368         1         0
      4371         1         0      4374         1         0      4377         1         0
      4380         1         0      4383         1         0      4386         1         0
      4389         1         0      4392         1         0      4395         1         0
      4398         1         0      4401         1         0      4405         2         0
      4421         2         0      4432         1         0      4440         1         0
      4449         1         0      4452         1         0      4455         1         0
      4457         1         0      4459         1         0      4462         1         0
      4464         1         0      4466         1         0      4469         1         0
      4471         1         0      4473         1         0      4476         1         0
      4478         1         0      4480         1         0      4483         1         0
      4486         2         0      4489         1         0      4492         2         0
      4496         1         0      4499         1         0      4502         1         0
      4505         1         0      4508         1         0      4511         1         0
      4514         1         0      4517         1         0      4520         1         0
      4523         1         0      4526         1         0      4529         1         0
      4532         1         0      4535         1         0      4538         1         0
      4541         1         0      4545         2         0      4561         2         0
      4572         1         0      4580         1         0      4589         1         0
      4592         1         0      4595         1         0      4598         1         0
      4601         1         0      4604         1         0      4607         1         0
      4609         1         0      4611         1         0      4614         1         0
      4616         1         0      4618         1         0      4621         1         0
      4624         1         0      4627         1         0      4630         1         0
      4634         1         0      4637         1         0      4640         1         0
      4643         1         0      4646         1         0      4649         1         0
      4652         1         0      4655         1         0      4658         1         0
      4661         1         0      4664         1         0      4667         1         0
      4670         1         0      4673         1         0      4676         1         0
      4679         1         0      4683         1         0      4687         1         0
      4690         1         0      4693         1         0      4696         1         0
      4698         1         0      4700         1         0      4703         1         0
      4706         1         0      4708         0         0      4709         1         0
      4713         1         0      4716         1         0      4719         1         0
      4721         0         0      4722         1         0      4726         1         0
      4729         1         0      4732         1         0      4734         1         0
      4738         1         0      4741         1         0      4744         1         0
      4747         1         0      4749         1         0      4753         1         0
      4757         1         0      4761         1         0      4764         1         0
      4767         1         0      4770         1         0      4772         1         0
      4774         1         0      4777         1         0      4780         1         0
      4782         0         0      4783         1         0      4787         1         0
      4790         1         0      4793         1         0      4795         0         0
      4796         1         0      4800         1         0      4803         1         0
      4806         1         0      4808         1         0      4812         1         0
      4815         1         0      4818         1         0      4821         1         0
      4823         1         0      4827         1         0      4831         1         0
      4835         1         0      4838         1         0      4841         1         0
      4844         1         0      4846         1         0      4848         1         0
      4851         1         0      4854         1         0      4856         0         0
      4857         1         0      4861         1         0      4864         1         0
      4867         1         0      4869         0         0      4870         1         0
      4874         1         0      4877         1         0      4880         1         0
      4882         1         0      4886         1         0      4889         1         0
      4892         1         0      4895         1         0      4897         1         0
      4901         1         0      4905         1         0      4909         1         0
      4912         1         0      4915         1         0      4918         1         0
      4920         1         0      4922         1         0      4925         1         0
      4928         1         0      4930         0         0      4931         1         0
      4935         1         0      4938         1         0      4941         1         0
      4943         0         0      4944         1         0      4948         1         0
      4951         1         0      4954         1         0      4956         1         0
      4960         1         0      4963         1         0      4966         1         0
      4969         1         0      4971         1         0      4975         1         0
      4979         2         0      4985         2         0      4988         2         0
      4999         1         0      5007         1         0      5016         1         0
      5019         1         0      5022         1         0      5024         1         0
      5026         1         0      5029         1         0      5031         1         0
      5033         1         0      5036         1         0      5038         1         0
      5040         1         0      5043         1         0      5045         1         0
      5047         1         0      5050         1         0      5053         1         0
      5056         1         0      5059         1         0      5063         1         0
      5066         1         0      5069         1         0      5072         1         0
      5075         1         0      5078         1         0      5081         1         0
      5084         1         0      5087         1         0      5090         1         0
      5093         1         0      5096         1         0      5099         1         0
      5102         1         0      5105         1         0      5108         1         0
      5112         2         0      5119         2         0      5130         1         0
      5138         1         0      5147         1         0      5150         1         0
      5153         1         0      5155         1         0      5157         1         0
      5160         1         0      5162         1         0      5164         1         0
      5167         1         0      5169         1         0      5171         1         0
      5174         1         0      5176         1         0      5178         1         0
      5181         1         0      5184         1         0      5187         1         0
      5190         1         0      5194         1         0      5197         1         0
      5200         1         0      5203         1         0      5206         1         0
      5209         1         0      5212         1         0      5215         1         0
      5218         1         0      5221         1         0      5224         1         0
      5227         1         0      5230         1         0      5233         1         0
      5236         1         0      5239         1         0      5243         1         0
      5247         1         0      5250         1         0      5253         1         0
      5256         1         0      5258         1         0      5260         1         0
      5263         1         0      5266         1         0      5268         0         0
      5269         1         0      5273         1         0      5276         1         0
      5279         1         0      5281         0         0      5282         1         0
      5286         1         0      5289         1         0      5292         1         0
      5294         1         0      5298         1         0      5301         1         0
      5304         1         0      5307         1         0      5309         1         0
      5313         1         0      5317         1         0      5321         1         0
      5324         1         0      5327         1         0      5330         1         0
      5332         1         0      5334         1         0      5337         1         0
      5340         1         0      5342         0         0      5343         1         0
      5347         1         0      5350         1         0      5353         1         0
      5355         0         0      5356         1         0      5360         1         0
      5363         1         0      5366         1         0      5368         1         0
      5372         1         0      5375         1         0      5378         1         0
      5381         1         0      5383         1         0      5387         1         0
      5391         2         0      5407         2         0      5418         1         0
      5426         1         0      5435         1         0      5438         1         0
      5441         1         0      5443         1         0      5445         1         0
      5448         1         0      5450         1         0      5452         1         0
      5455         1         0      5457         1         0      5459         1         0
      5462         1         0      5464         1         0      5466         1         0
      5469         1         0      5472         2         0      5475         1         0
      5478         2         0      5482         1         0      5485         1         0
      5488         1         0      5491         1         0      5494         1         0
      5497         1         0      5500         1         0      5503         1         0
      5506         1         0      5509         1         0      5512         1         0
      5515         1         0      5518         1         0      5521         1         0
      5524         1         0      5527         1         0      5531         2         0
      5547         2         0      5558         1         0      5566         1         0
      5575         1         0      5578         1         0      5581         1         0
      5584         1         0      5587         1         0      5590         1         0
      5593         1         0      5595         1         0      5597         1         0
      5600         1         0      5603         1         0      5606         1         0
      5609         1         0      5612         1         0      5615         1         0
      5618         1         0      5622         1         0      5625         1         0
      5628         1         0      5631         1         0      5634         1         0
      5637         1         0      5640         1         0      5643         1         0
      5646         1         0      5649         1         0      5652         1         0
      5655         1         0      5658         1         0      5661         1         0
      5665         1         0      5669         1         0      5672         1         0
      5675         1         0      5678         1         0      5680         1         0
      5682         1         0      5685         1         0      5688         1         0
      5690         0         0      5691         1         0      5695         1         0
      5698         1         0      5701         1         0      5703         0         0
      5704         1         0      5708         1         0      5711         1         0
      5714         1         0      5716         1         0      5720         1         0
      5723         1         0      5726         1         0      5729         1         0
      5731         1         0      5735         1         0      5739         1         0
      5743         1         0      5746         1         0      5749         1         0
      5752         1         0      5754         1         0      5756         1         0
      5759         1         0      5762         1         0      5764         0         0
      5765         1         0      5769         1         0      5772         1         0
      5775         1         0      5777         0         0      5778         1         0
      5782         1         0      5785         1         0      5788         1         0
      5790         1         0      5794         1         0      5797         1         0
      5800         1         0      5803         1         0      5805         1         0
      5809         1         0      5813         2         0      5829         2         0
      5840         1         0      5844         1         0      5848         1         0
      5850         1         0      5852         1         0      5855         1         0
      5858         1         0      5861         1         0      5864         1         0
      5867         1         0      5870         1         0      5873         1         0
      5876         1         0      5879         1         0      5882         1         0
      5885         1         0      5888         1         0      5892         1         0
      5897         1         0      5900         1         0      5903         1         0
      5906         1         0      5909         1         0      5912         1         0
      5915         1         0      5917         1         0      5919         1         0
      5922         1         0      5925         1         0      5928         1         0
      5931         1         0      5934         1         0      5937         1         0
      5940         1         0      5944         2         0      5960         2         0
      5971         1         0      5979         1         0      5988         1         0
      5991         1         0      5994         1         0      5996         1         0
      5998         1         0      6001         1         0      6003         1         0
      6005         1         0      6008         1         0      6010         1         0
      6012         1         0      6015         1         0      6017         1         0
      6019         1         0      6022         1         0      6025         2         0
      6028         1         0      6031         2         0      6035         1         0
      6038         1         0      6041         1         0      6044         1         0
      6047         1         0      6050         1         0      6053         1         0
      6056         1         0      6059         1         0      6062         1         0
      6065         1         0      6068         1         0      6071         1         0
      6074         1         0      6077         1         0      6080         1         0
      6084         2         0      6100         2         0      6111         1         0
      6115         1         0      6119         1         0      6121         1         0
      6123         1         0      6126         1         0      6129         1         0
      6132         1         0      6135         1         0      6138         1         0
      6141         1         0      6144         1         0      6147         1         0
      6150         1         0      6153         1         0      6156         1         0
      6159         1         0      6163         1         0      6168         1         0
      6171         1         0      6174         1         0      6177         1         0
      6180         1         0      6183         1         0      6186         1         0
      6188         1         0      6190         1         0      6193         1         0
      6196         1         0      6199         1         0      6202         1         0
      6205         1         0      6208         1         0      6211         1         0
      6215         2         0      6222         2         0      6233         1         0
      6241         1         0      6250         1         0      6253         1         0
      6256         1         0      6258         1         0      6260         1         0
      6263         1         0      6265         1         0      6267         1         0
      6270         1         0      6272         1         0      6274         1         0
      6277         1         0      6279         1         0      6281         1         0
      6284         1         0      6287         1         0      6290         1         0
      6293         1         0      6297         1         0      6300         1         0
      6303         1         0      6306         1         0      6309         1         0
      6312         1         0      6315         1         0      6318         1         0
      6321         1         0      6324         1         0      6327         1         0
      6330         1         0      6333         1         0      6336         1         0
      6339         1         0      6342         1         0      6346         2         0
      6362         2         0      6373         1         0      6377         1         0
      6381         1         0      6383         1         0      6385         1         0
      6388         1         0      6391         1         0      6394         1         0
      6397         1         0      6400         1         0      6403         1         0
      6406         1         0      6409         1         0      6412         1         0
      6415         1         0      6418         1         0      6421         1         0
      6425         1         0      6430         1         0      6433         1         0
      6436         1         0      6439         1         0      6442         1         0
      6445         1         0      6448         1         0      6450         1         0
      6452         1         0      6455         1         0      6458         1         0
      6461         1         0      6464         1         0      6467         1         0
      6470         1         0      6473         1         0      6477         2         0
      6493         2         0      6504         1         0      6508         1         0
      6512         1         0      6514         1         0      6516         1         0
      6519         1         0      6522         1         0      6525         1         0
      6528         1         0      6531         1         0      6534         1         0
      6537         1         0      6540         1         0      6543         1         0
      6546         1         0      6549         1         0      6552         1         0
      6556         1         0      6561         1         0      6564         1         0
      6567         1         0      6570         1         0      6573         1         0
      6576         1         0      6579         1         0      6581         1         0
      6583         1         0      6586         1         0      6589         1         0
      6592         1         0      6595         1         0      6598         1         0
      6601         1         0      6604         1         0      6608         2         0
      6615         2         0      6626         1         0      6634         1         0
      6643         1         0      6646         1         0      6649         1         0
      6652         1         0      6655         1         0      6658         1         0
      6661         1         0      6663         1         0      6665         1         0
      6668         1         0      6671         1         0      6674         1         0
      6677         1         0      6680         1         0      6683         1         0
      6686         1         0      6690         1         0      6693         1         0
      6696         1         0      6699         1         0      6702         1         0
      6705         1         0      6708         1         0      6711         1         0
      6714         1         0      6717         1         0      6720         1         0
      6723         1         0      6726         1         0      6729         1         0
      6732         1         0      6735         1         0      6739         2         0
      6746         2         0      6757         1         0      6765         1         0
      6774         1         0      6777         1         0      6780         1         0
      6783         1         0      6786         1         0      6789         1         0
      6792         1         0      6794         1         0      6796         1         0
      6799         1         0      6802         1         0      6805         1         0
      6808         1         0      6811         1         0      6814         1         0
      6817         1         0      6821         1         0      6824         1         0
      6827         1         0      6830         1         0      6833         1         0
      6836         1         0      6839         1         0      6842         1         0
      6845         1         0      6848         1         0      6851         1         0
      6854         1         0      6857         1         0      6860         1         0
      6863         1         0      6866         1         0      6870         2         0
      6876         2         0      6879         2         0      6890         1         0
      6898         1         0      6907         1         0      6910         1         0
      6913         1         0      6915         1         0      6917         1         0
      6920         1         0      6922         1         0      6924         1         0
      6927         1         0      6929         1         0      6931         1         0
      6934         1         0      6936         1         0      6938         1         0
      6941         1         0      6944         1         0      6947         1         0
      6950         1         0      6954         1         0      6957         1         0
      6960         1         0      6963         1         0      6966         1         0
      6969         1         0      6972         1         0      6975         1         0
      6978         1         0      6981         1         0      6984         1         0
      6987         1         0      6990         1         0      6993         1         0
      6996         1         0      6999         1         0      7003         2         0
      7019         2         0      7030         1         0      7034         1         0
      7038         1         0      7040         1         0      7042         1         0
      7045         1         0      7048         1         0      7051         1         0
      7054         1         0      7057         1         0      7060         1         0
      7063         1         0      7066         1         0      7069         1         0
      7072         1         0      7075         1         0      7078         1         0
      7082         1         0      7087         1         0      7090         1         0
      7093         1         0      7096         1         0      7099         1         0
      7102         1         0      7105         1         0      7107         1         0
      7109         1         0      7112         1         0      7115         1         0
      7118         1         0      7121         1         0      7124         1         0
      7127         1         0      7130         1         0      7134         2         0
      7141         2         0      7152         1         0      7160         1         0
      7169         1         0      7172         1         0      7175         1         0
      7177         1         0      7179         1         0      7182         1         0
      7184         1         0      7186         1         0      7189         1         0
      7191         1         0      7193         1         0      7196         1         0
      7198         1         0      7200         1         0      7203         1         0
      7206         1         0      7209         1         0      7212         1         0
      7216         1         0      7219         1         0      7222         1         0
      7225         1         0      7228         1         0      7231         1         0
      7234         1         0      7237         1         0      7240         1         0
      7243         1         0      7246         1         0      7249         1         0
      7252         1         0      7255         1         0      7258         1         0
      7261         1         0      7265         2         0      7281         2         0
      7292         1         0      7300         1         0      7309         1         0
      7312         1         0      7315         1         0      7318         1         0
      7321         1         0      7324         1         0      7327         1         0
      7329         1         0      7331         1         0      7334         1         0
      7337         1         0      7340         1         0      7343         1         0
      7346         1         0      7349         1         0      7352         1         0
      7356         1         0      7359         1         0      7362         1         0
      7365         1         0      7368         1         0      7371         1         0
      7374         1         0      7377         1         0      7380         1         0
      7383         1         0      7386         1         0      7389         1         0
      7392         1         0      7395         1         0      7399         2         0
      7406         2         0      7417         1         0      7425         1         0
      7434         1         0      7437         1         0      7440         1         0
      7443         1         0      7446         1         0      7449         1         0
      7452         1         0      7454         1         0      7456         1         0
      7459         1         0      7462         1         0      7465         1         0
      7468         1         0      7471         1         0      7474         1         0
      7477         1         0      7481         1         0      7484         1         0
      7487         1         0      7490         1         0      7493         1         0
      7496         1         0      7499         1         0      7502         1         0
      7505         1         0      7508         1         0      7511         1         0
      7514         1         0      7517         1         0      7520         1         0
      7523         1         0      7526         1         0      7530         1         0
      7534         1         0      7537         1         0      7540         1         0
      7543         1         0      7545         1         0      7547         1         0
      7550         1         0      7553         1         0      7555         0         0
      7556         1         0      7560         1         0      7563         1         0
      7566         1         0      7568         0         0      7569         1         0
      7573         1         0      7576         1         0      7579         1         0
      7581         1         0      7585         1         0      7588         1         0
      7591         1         0      7594         1         0      7596         1         0
      7600         1         0      7604         2         0      7620         2         0
      7631         1         0      7639         1         0      7648         1         0
      7651         1         0      7654         1         0      7656         1         0
      7658         1         0      7661         1         0      7663         1         0
      7665         1         0      7668         1         0      7670         1         0
      7672         1         0      7675         1         0      7677         1         0
      7679         1         0      7682         1         0      7685         2         0
      7688         1         0      7691         2         0      7695         1         0
      7698         1         0      7701         1         0      7704         1         0
      7707         1         0      7710         1         0      7713         1         0
      7716         1         0      7719         1         0      7722         1         0
      7725         1         0      7728         1         0      7731         1         0
      7734         1         0      7737         1         0      7740         1         0
      7744         2         0      7751         2         0      7762         1         0
      7770         1         0      7779         1         0      7782         1         0
      7785         1         0      7787         1         0      7789         1         0
      7792         1         0      7794         1         0      7796         1         0
      7799         1         0      7801         1         0      7803         1         0
      7806         1         0      7808         1         0      7810         1         0
      7813         1         0      7816         1         0      7819         1         0
      7822         1         0      7826         1         0      7829         1         0
      7832         1         0      7835         1         0      7838         1         0
      7841         1         0      7844         1         0      7847         1         0
      7850         1         0      7853         1         0      7856         1         0
      7859         1         0      7862         1         0      7865         1         0
      7868         1         0      7871         1         0      7875         2         0
      7882         2         0      7893         1         0      7901         1         0
      7910         1         0      7913         1         0      7916         1         0
      7918         1         0      7920         1         0      7923         1         0
      7925         1         0      7927         1         0      7930         1         0
      7932         1         0      7934         1         0      7937         1         0
      7939         1         0      7941         1         0      7944         1         0
      7947         1         0      7950         1         0      7953         1         0
      7957         1         0      7960         1         0      7963         1         0
      7966         1         0      7969         1         0      7972         1         0
      7975         1         0      7978         1         0      7981         1         0
      7984         1         0      7987         1         0      7990         1         0
      7993         1         0      7996         1         0      7999         1         0
      8002         1         0      8006         1         0      8010         1         0
      8013         1         0      8016         1         0      8019         1         0
      8021         1         0      8023         1         0      8026         1         0
      8029         1         0      8031         0         0      8032         1         0
      8036         1         0      8039         1         0      8042         1         0
      8044         0         0      8045         1         0      8049         1         0
      8052         1         0      8055         1         0      8057         1         0
      8061         1         0      8064         1         0      8067         1         0
      8070         1         0      8072         1         0      8076         1         0
      8080         1         0      8084         1         0      8088         1         0
      8092         1         0      8096         1         0      8100         2         0
      8110         1         0      8118         1         0      8127         1         0
      8130         1         0      8133         1         0      8135         1         0
      8137         1         0      8140         1         0      8142         1         0
      8144         1         0      8147         1         0      8149         1         0
      8151         1         0      8154         1         0      8156         1         0
      8158         1         0      8161         1         0      8164         1         0
      8167         1         0      8170         1         0      8174         1         0
      8177         1         0      8180         1         0      8183         1         0
      8186         1         0      8189         1         0      8192         1         0
      8195         1         0      8198         1         0      8201         1         0
      8204         1         0      8207         1         0      8210         1         0
      8213         1         0      8216         1         0      8219         1         0
      8223         2         0      8239         2         0      8250         1         0
      8254         1         0      8258         1         0      8260         1         0
      8262         1         0      8265         1         0      8268         1         0
      8271         1         0      8274         1         0      8277         1         0
      8280         1         0      8283         1         0      8286         1         0
      8289         1         0      8292         1         0      8295         1         0
      8298         1         0      8302         1         0      8307         1         0
      8310         1         0      8313         1         0      8316         1         0
      8319         1         0      8322         1         0      8325         1         0
      8327         1         0      8329         1         0      8332         1         0
      8335         1         0      8338         1         0      8341         1         0
      8344         1         0      8347         1         0      8350         1         0
      8354         2         0      8361         2         0      8372         1         0
      8380         1         0      8389         1         0      8392         1         0
      8395         1         0      8398         1         0      8401         1         0
      8404         1         0      8407         1         0      8409         1         0
      8411         1         0      8414         1         0      8417         1         0
      8420         1         0      8423         1         0      8426         1         0
      8429         1         0      8432         1         0      8436         1         0
      8439         1         0      8442         1         0      8445         1         0
      8448         1         0      8451         1         0      8454         1         0
      8457         1         0      8460         1         0      8463         1         0
      8466         1         0      8469         1         0      8472         1         0
      8475         1         0      8478         1         0      8481         1         0
      8485         2         0      8501         2         0      8512         1         0
      8520         1         0      8529         1         0      8532         1         0
      8535         1         0      8538         1         0      8541         1         0
      8544         1         0      8547         1         0      8549         1         0
      8551         1         0      8554         1         0      8556         1         0
      8558         1         0      8561         1         0      8564         1         0
      8567         1         0      8570         1         0      8574         1         0
      8577         1         0      8580         1         0      8583         1         0
      8586         1         0      8589         1         0      8592         1         0
      8595         1         0      8598         1         0      8601         1         0
      8604         1         0      8607         1         0      8610         1         0
      8613         1         0      8616         1         0      8619         1         0
      8623         2         0      8630         2         0      8641         1         0
      8649         1         0      8658         1         0      8661         1         0
      8664         1         0      8666         1         0      8668         1         0
      8671         1         0      8673         1         0      8675         1         0
      8678         1         0      8680         1         0      8682         1         0
      8685         1         0      8687         1         0      8689         1         0
      8692         1         0      8695         1         0      8698         1         0
      8701         1         0      8705         1         0      8708         1         0
      8711         1         0      8714         1         0      8717         1         0
      8720         1         0      8723         1         0      8726         1         0
      8729         1         0      8732         1         0      8735         1         0
      8738         1         0      8741         1         0      8744         1         0
      8747         1         0      8750         1         0      8754         2         0
      8760         2         0      8763         2         0      8774         1         0
      8782         1         0      8791         1         0      8794         1         0
      8797         1         0      8799         1         0      8801         1         0
      8804         1         0      8806         1         0      8808         1         0
      8811         1         0      8813         1         0      8815         1         0
      8818         1         0      8820         1         0      8822         1         0
      8825         1         0      8828         1         0      8831         1         0
      8834         1         0      8838         1         0      8841         1         0
      8844         1         0      8847         1         0      8850         1         0
      8853         1         0      8856         1         0      8859         1         0
      8862         1         0      8865         1         0      8868         1         0
      8871         1         0      8874         1         0      8877         1         0
      8880         1         0      8883         1         0      8887         2         0
      8893         2         0      8896         2         0      8907         1         0
      8915         1         0      8924         1         0      8927         1         0
      8930         1         0      8932         1         0      8934         1         0
      8937         1         0      8939         1         0      8941         1         0
      8944         1         0      8946         1         0      8948         1         0
      8951         1         0      8953         1         0      8955         1         0
      8958         1         0      8961         1         0      8964         1         0
      8967         1         0      8971         1         0      8974         1         0
      8977         1         0      8980         1         0      8983         1         0
      8986         1         0      8989         1         0      8992         1         0
      8995         1         0      8998         1         0      9001         1         0
      9004         1         0      9007         1         0      9010         1         0
      9013         1         0      9016         1         0      9020         2         0
      9036         2         0      9047         1         0      9055         1         0
      9064         1         0      9067         1         0      9070         1         0
      9072         1         0      9074         1         0      9077         1         0
      9079         1         0      9081         1         0      9084         1         0
      9086         1         0      9088         1         0      9091         1         0
      9093         1         0      9095         1         0      9098         1         0
      9101         2         0      9104         1         0      9107         2         0
      9111         1         0      9114         1         0      9117         1         0
      9120         1         0      9123         1         0      9126         1         0
      9129         1         0      9132         1         0      9135         1         0
      9138         1         0      9141         1         0      9144         1         0
      9147         1         0      9150         1         0      9153         1         0
      9156         1         0      9160         2         0      9176         2         0
      9187         1         0      9191         1         0      9195         1         0
      9197         1         0      9199         1         0      9202         1         0
      9205         1         0      9208         1         0      9211         1         0
      9214         1         0      9217         1         0      9220         1         0
      9223         1         0      9226         1         0      9229         1         0
      9232         1         0      9235         1         0      9239         1         0
      9244         1         0      9247         1         0      9250         1         0
      9253         1         0      9256         1         0      9259         1         0
      9262         1         0      9264         1         0      9266         1         0
      9269         1         0      9272         1         0      9275         1         0
      9278         1         0      9281         1         0      9284         1         0
      9287         1         0      9291         2         0      9298         2         0
      9309         1         0      9317         1         0      9326         1         0
      9329         1         0      9332         1         0      9334         1         0
      9336         1         0      9339         1         0      9341         1         0
      9343         1         0      9346         1         0      9348         1         0
      9350         1         0      9353         1         0      9355         1         0
      9357         1         0      9360         1         0      9363         1         0
      9366         1         0      9369         1         0      9373         1         0
      9376         1         0      9379         1         0      9382         1         0
      9385         1         0      9388         1         0      9391         1         0
      9394         1         0      9397         1         0      9400         1         0
      9403         1         0      9406         1         0      9409         1         0
      9412         1         0      9415         1         0      9418         1         0
      9422         2         0      9438         2         0      9449         1         0
      9453         1         0      9457         1         0      9459         1         0
      9461         1         0      9464         1         0      9467         1         0
      9470         1         0      9473         1         0      9476         1         0
      9479         1         0      9482         1         0      9485         1         0
      9488         1         0      9491         1         0      9494         1         0
      9497         1         0      9501         1         0      9506         1         0
      9509         1         0      9512         1         0      9515         1         0
      9518         1         0      9521         1         0      9524         1         0
      9526         1         0      9528         1         0      9531         1         0
      9534         1         0      9537         1         0      9540         1         0
      9543         1         0      9546         1         0      9549         1         0
      9553         1         0      9557         1         0      9560         1         0
      9563         1         0      9566         1         0      9568         1         0
      9570         1         0      9573         1         0      9576         1         0
      9578         0         0      9579         1         0      9583         1         0
      9586         1         0      9589         1         0      9591         0         0
      9592         1         0      9596         1         0      9599         1         0
      9602         1         0      9604         1         0      9608         1         0
      9611         1         0      9614         1         0      9617         1         0
      9619         1         0      9623         1         0      9627         2         0
      9634         2         0      9645         1         0      9653         1         0
      9662         1         0      9665         1         0      9668         1         0
      9670         1         0      9672         1         0      9675         1         0
      9677         1         0      9679         1         0      9682         1         0
      9684         1         0      9686         1         0      9689         1         0
      9691         1         0      9693         1         0      9696         1         0
      9699         1         0      9702         1         0      9705         1         0
      9709         1         0      9712         1         0      9715         1         0
      9718         1         0      9721         1         0      9724         1         0
      9727         1         0      9730         1         0      9733         1         0
      9736         1         0      9739         1         0      9742         1         0
      9745         1         0      9748         1         0      9751         1         0
      9754         1         0      9758         2         0      9774         2         0
      9785         1         0      9789         1         0      9793         1         0
      9795         1         0      9797         1         0      9800         1         0
      9803         1         0      9806         1         0      9809         1         0
      9812         1         0      9815         1         0      9818         1         0
      9821         1         0      9824         1         0      9827         1         0
      9830         1         0      9833         1         0      9837         1         0
      9842         1         0      9845         1         0      9848         1         0
      9851         1         0      9854         1         0      9857         1         0
      9860         1         0      9862         1         0      9864         1         0
      9867         1         0      9870         1         0      9873         1         0
      9876         1         0      9879         1         0      9882         1         0
      9885         1         0      9889         2         0      9905         2         0
      9916         1         0      9924         1         0      9933         1         0
      9936         1         0      9939         1         0      9942         1         0
      9945         1         0      9948         1         0      9951         1         0
      9953         1         0      9955         1         0      9958         1         0
      9960         1         0      9962         1         0      9965         1         0
      9968         1         0      9971         1         0      9974         1         0
      9978         1         0      9981         1         0      9984         1         0
      9987         1         0      9990         1         0      9993         1         0
      9996         1         0      9999         1         0     10002         1         0
     10005         1         0     10008         1         0     10011         1         0
     10014         1         0     10017         1         0     10020         1         0
     10023         1         0     10027         2         0     10043         2         0
     10054         1         0     10058         1         0     10062         1         0
     10064         1         0     10066         1         0     10069         1         0
     10072         1         0     10075         1         0     10078         1         0
     10081         1         0     10084         1         0     10087         1         0
     10090         1         0     10093         1         0     10096         1         0
     10099         1         0     10102         1         0     10106         1         0
     10111         1         0     10114         1         0     10117         1         0
     10120         1         0     10123         1         0     10126         1         0
     10129         1         0     10131         1         0     10133         1         0
     10136         1         0     10139         1         0     10142         1         0
     10145         1         0     10148         1         0     10151         1         0
     10154         1         0     10158         1         0     10162         1         0
     10165         1         0     10168         1         0     10171         1         0
     10173         1         0     10175         1         0     10178         1         0
     10181         1         0     10183         0         0     10184         1         0
     10188         1         0     10191         1         0     10194         1         0
     10196         0         0     10197         1         0     10201         1         0
     10204         1         0     10207         1         0     10209         1         0
     10213         1         0     10216         1         0     10219         1         0
     10222         1         0     10224         1         0     10228         1         0
     10232         2         0     10239         2         0     10250         1         0
     10258         1         0     10267         1         0     10270         1         0
     10273         1         0     10275         1         0     10277         1         0
     10280         1         0     10282         1         0     10284         1         0
     10287         1         0     10289         1         0     10291         1         0
     10294         1         0     10296         1         0     10298         1         0
     10301         1         0     10304         1         0     10307         1         0
     10310         1         0     10314         1         0     10317         1         0
     10320         1         0     10323         1         0     10326         1         0
     10329         1         0     10332         1         0     10335         1         0
     10338         1         0     10341         1         0     10344         1         0
     10347         1         0     10350         1         0     10353         1         0
     10356         1         0     10359         1         0     10363         2         0
     10379         2         0     10390         1         0     10394         1         0
     10398         1         0     10400         1         0     10402         1         0
     10405         1         0     10408         1         0     10411         1         0
     10414         1         0     10417         1         0     10420         1         0
     10423         1         0     10426         1         0     10429         1         0
     10432         1         0     10435         1         0     10438         1         0
     10442         1         0     10447         1         0     10450         1         0
     10453         1         0     10456         1         0     10459         1         0
     10462         1         0     10465         1         0     10467         1         0
     10469         1         0     10472         1         0     10475         1         0
     10478         1         0     10481         1         0     10484         1         0
     10487         1         0     10490         1         0     10494         2         0
     10500         2         0     10503         2         0     10514         1         0
     10522         1         0     10531         1         0     10534         1         0
     10537         1         0     10539         1         0     10541         1         0
     10544         1         0     10546         1         0     10548         1         0
     10551         1         0     10553         1         0     10555         1         0
     10558         1         0     10560         1         0     10562         1         0
     10565         1         0     10568         1         0     10571         1         0
     10574         1         0     10578         1         0     10581         1         0
     10584         1         0     10587         1         0     10590         1         0
     10593         1         0     10596         1         0     10599         1         0
     10602         1         0     10605         1         0     10608         1         0
     10611         1         0     10614         1         0     10617         1         0
     10620         1         0     10623         1         0     10627         2         0
     10643         2         0     10654         1         0     10662         1         0
     10671         1         0     10674         1         0     10677         1         0
     10679         1         0     10681         1         0     10684         1         0
     10686         1         0     10688         1         0     10691         1         0
     10693         1         0     10695         1         0     10698         1         0
     10700         1         0     10702         1         0     10705         1         0
     10708         2         0     10711         1         0     10714         2         0
     10718         1         0     10721         1         0     10724         1         0
     10727         1         0     10730         1         0     10733         1         0
     10736         1         0     10739         1         0     10742         1         0
     10745         1         0     10748         1         0     10751         1         0
     10754         1         0     10757         1         0     10760         1         0
     10763         1         0     10767         2         0     10774         2         0
     10785         1         0     10793         1         0     10802         1         0
     10805         1         0     10808         1         0     10810         1         0
     10812         1         0     10815         1         0     10817         1         0
     10819         1         0     10822         1         0     10824         1         0
     10826         1         0     10829         1         0     10831         1         0
     10833         1         0     10836         1         0     10839         1         0
     10842         1         0     10845         1         0     10849         1         0
     10852         1         0     10855         1         0     10858         1         0
     10861         1         0     10864         1         0     10867         1         0
     10870         1         0     10873         1         0     10876         1         0
     10879         1         0     10882         1         0     10885         1         0
     10888         1         0     10891         1         0     10894         1         0
     10898         2         0     10905         2         0     10916         1         0
     10924         1         0     10933         1         0     10936         1         0
     10939         1         0     10941         1         0     10943         1         0
     10946         1         0     10948         1         0     10950         1         0
     10953         1         0     10955         1         0     10957         1         0
     10960         1         0     10962         1         0     10964         1         0
     10967         1         0     10970         1         0     10973         1         0
     10976         1         0     10980         1         0     10983         1         0
     10986         1         0     10989         1         0     10992         1         0
     10995         1         0     10998         1         0     11001         1         0
     11004         1         0     11007         1         0     11010         1         0
     11013         1         0     11016         1         0     11019         1         0
     11022         1         0     11025         1         0     11029         2         0
     11036         2         0     11047         1         0     11055         1         0
     11064         1         0     11067         1         0     11070         1         0
     11073         1         0     11076         1         0     11079         1         0
     11082         1         0     11084         1         0     11086         1         0
     11089         1         0     11092         1         0     11095         1         0
     11098         1         0     11101         1         0     11104         1         0
     11107         1         0     11111         1         0     11114         1         0
     11117         1         0     11120         1         0     11123         1         0
     11126         1         0     11129         1         0     11132         1         0
     11135         1         0     11138         1         0     11141         1         0
     11144         1         0     11147         1         0     11150         1         0
     11153         1         0     11156         1         0     11160         1         0
     11164         1         0     11167         1         0     11170         1         0
     11173         1         0     11175         1         0     11177         1         0
     11180         1         0     11183         1         0     11185         0         0
     11186         1         0     11190         1         0     11193         1         0
     11196         1         0     11198         0         0     11199         1         0
     11203         1         0     11206         1         0     11209         1         0
     11211         1         0     11215         1         0     11218         1         0
     11221         1         0     11224         1         0     11226         1         0
     11230         1         0     11234         1         0     11238         1         0
     11241         1         0     11244         1         0     11247         1         0
     11249         1         0     11251         1         0     11254         1         0
     11257         1         0     11259         0         0     11260         1         0
     11264         1         0     11267         1         0     11270         1         0
     11272         0         0     11273         1         0     11277         1         0
     11280         1         0     11283         1         0     11285         1         0
     11289         1         0     11292         1         0     11295         1         0
     11298         1         0     11300         1         0     11304         1         0
     11308         2         0     11324         2         0     11335         1         0
     11339         1         0     11343         1         0     11345         1         0
     11347         1         0     11350         1         0     11353         1         0
     11356         1         0     11359         1         0     11362         1         0
     11365         1         0     11368         1         0     11371         1         0
     11374         1         0     11377         1         0     11380         1         0
     11383         1         0     11387         1         0     11392         1         0
     11395         1         0     11398         1         0     11401         1         0
     11404         1         0     11407         1         0     11410         1         0
     11412         1         0     11414         1         0     11417         1         0
     11420         1         0     11423         1         0     11426         1         0
     11429         1         0     11432         1         0     11435         1         0
     11439         2         0     11455         2         0     11466         1         0
     11474         1         0     11483         1         0     11486         1         0
     11489         1         0     11492         1         0     11495         1         0
     11498         1         0     11501         1         0     11503         1         0
     11505         1         0     11508         1         0     11510         1         0
     11512         1         0     11515         1         0     11518         1         0
     11521         1         0     11524         1         0     11528         1         0
     11531         1         0     11534         1         0     11537         1         0
     11540         1         0     11543         1         0     11546         1         0
     11549         1         0     11552         1         0     11555         1         0
     11558         1         0     11561         1         0     11564         1         0
     11567         1         0     11570         1         0     11573         1         0
     11577         2         0     11583         2         0     11586         2         0
     11597         1         0     11605         1         0     11614         1         0
     11617         1         0     11620         1         0     11622         1         0
     11624         1         0     11627         1         0     11629         1         0
     11631         1         0     11634         1         0     11636         1         0
     11638         1         0     11641         1         0     11643         1         0
     11645         1         0     11648         1         0     11651         1         0
     11654         1         0     11657         1         0     11661         1         0
     11664         1         0     11667         1         0     11670         1         0
     11673         1         0     11676         1         0     11679         1         0
     11682         1         0     11685         1         0     11688         1         0
     11691         1         0     11694         1         0     11697         1         0
     11700         1         0     11703         1         0     11706         1         0
     11710         2         0     11726         2         0     11737         1         0
     11741         1         0     11745         1         0     11747         1         0
     11749         1         0     11752         1         0     11755         1         0
     11758         1         0     11761         1         0     11764         1         0
     11767         1         0     11770         1         0     11773         1         0
     11776         1         0     11779         1         0     11782         1         0
     11785         1         0     11789         1         0     11794         1         0
     11797         1         0     11800         1         0     11803         1         0
     11806         1         0     11809         1         0     11812         1         0
     11814         1         0     11816         1         0     11819         1         0
     11822         1         0     11825         1         0     11828         1         0
     11831         1         0     11834         1         0     11837         1         0
     11841         2         0     11848         2         0     11859         1         0
     11867         1         0     11876         1         0     11879         1         0
     11882         1         0     11884         1         0     11886         1         0
     11889         1         0     11891         1         0     11893         1         0
     11896         1         0     11898         1         0     11900         1         0
     11903         1         0     11905         1         0     11907         1         0
     11910         1         0     11913         1         0     11916         1         0
     11919         1         0     11923         1         0     11926         1         0
     11929         1         0     11932         1         0     11935         1         0
     11938         1         0     11941         1         0     11944         1         0
     11947         1         0     11950         1         0     11953         1         0
     11956         1         0     11959         1         0     11962         1         0
     11965         1         0     11968         1         0     11972         2         0
     11988         2         0     11999         1         0     12003         1         0
     12007         1         0     12009         1         0     12011         1         0
     12014         1         0     12017         1         0     12020         1         0
     12023         1         0     12026         1         0     12029         1         0
     12032         1         0     12035         1         0     12038         1         0
     12041         1         0     12044         1         0     12047         1         0
     12051         1         0     12056         1         0     12059         1         0
     12062         1         0     12065         1         0     12068         1         0
     12071         1         0     12074         1         0     12076         1         0
     12078         1         0     12081         1         0     12084         1         0
     12087         1         0     12090         1         0     12093         1         0
     12096         1         0     12099         1         0     12103         1         0
     12107         1         0     12110         1         0     12113         1         0
     12116         1         0     12118         1         0     12120         1         0
     12123         1         0     12126         1         0     12128         0         0
     12129         1         0     12133         1         0     12136         1         0
     12139         1         0     12141         0         0     12142         1         0
     12146         1         0     12149         1         0     12152         1         0
     12154         1         0     12158         1         0     12161         1         0
     12164         1         0     12167         1         0     12169         1         0
     12173         1         0     12177         2         0     12193         2         0
     12204         1         0     12212         1         0     12221         1         0
     12224         1         0     12227         1         0     12230         1         0
     12233         1         0     12236         1         0     12239         1         0
     12241         1         0     12243         1         0     12246         1         0
     12249         1         0     12252         1         0     12255         1         0
     12258         1         0     12261         1         0     12264         1         0
     12268         1         0     12271         1         0     12274         1         0
     12277         1         0     12280         1         0     12283         1         0
     12286         1         0     12289         1         0     12292         1         0
     12295         1         0     12298         1         0     12301         1         0
     12304         1         0     12307         1         0     12311         2         0
     12327         2         0     12338         1         0     12346         1         0
     12355         1         0     12358         1         0     12361         1         0
     12363         1         0     12365         1         0     12368         1         0
     12370         1         0     12372         1         0     12375         1         0
     12377         1         0     12379         1         0     12382         1         0
     12384         1         0     12386         1         0     12389         1         0
     12392         2         0     12395         1         0     12398         2         0
     12402         1         0     12405         1         0     12408         1         0
     12411         1         0     12414         1         0     12417         1         0
     12420         1         0     12423         1         0     12426         1         0
     12429         1         0     12432         1         0     12435         1         0
     12438         1         0     12441         1         0     12444         1         0
     12447         1         0     12451         2         0     12467         2         0
     12478         1         0     12482         1         0     12486         1         0
     12488         1         0     12490         1         0     12493         1         0
     12496         1         0     12499         1         0     12502         1         0
     12505         1         0     12508         1         0     12511         1         0
     12514         1         0     12517         1         0     12520         1         0
     12523         1         0     12526         1         0     12530         1         0
     12535         1         0     12538         1         0     12541         1         0
     12544         1         0     12547         1         0     12550         1         0
     12553         1         0     12555         1         0     12557         1         0
     12560         1         0     12563         1         0     12566         1         0
     12569         1         0     12572         1         0     12575         1         0
     12578         1         0     12582         1         0     12586         1         0
     12590         1         0     12594         1         0     12598         1         0
     12602         2         0     12612         1         0     12620         1         0
     12629         1         0     12632         1         0     12635         1         0
     12637         1         0     12639         1         0     12642         1         0
     12644         1         0     12646         1         0     12649         1         0
     12651         1         0     12653         1         0     12656         1         0
     12658         1         0     12660         1         0     12663         1         0
     12666         1         0     12669         1         0     12672         1         0
     12676         1         0     12679         1         0     12682         1         0
     12685         1         0     12688         1         0     12691         1         0
     12694         1         0     12697         1         0     12700         1         0
     12703         1         0     12706         1         0     12709         1         0
     12712         1         0     12715         1         0     12718         1         0
     12721         1         0     12725         2         0     12741         2         0
     12752         1         0     12756         1         0     12760         1         0
     12762         1         0     12764         1         0     12767         1         0
     12770         1         0     12773         1         0     12776         1         0
     12779         1         0     12782         1         0     12785         1         0
     12788         1         0     12791         1         0     12794         1         0
     12797         1         0     12800         1         0     12804         1         0
     12809         1         0     12812         1         0     12815         1         0
     12818         1         0     12821         1         0     12824         1         0
     12827         1         0     12829         1         0     12831         1         0
     12834         1         0     12837         1         0     12840         1         0
     12843         1         0     12846         1         0     12849         1         0
     12852         1         0     12856         2         0     12872         2         0
     12883         1         0     12891         1         0     12900         1         0
     12903         1         0     12906         1         0     12909         1         0
     12912         1         0     12915         1         0     12918         1         0
     12920         1         0     12922         1         0     12925         1         0
     12928         1         0     12931         1         0     12934         1         0
     12937         1         0     12940         1         0     12943         1         0
     12947         1         0     12950         1         0     12953         1         0
     12956         1         0     12959         1         0     12962         1         0
     12965         1         0     12968         1         0     12971         1         0
     12974         1         0     12977         1         0     12980         1         0
     12983         1         0     12986         1         0     12990         2         0
     13006         2         0     13017         1         0     13025         1         0
     13034         1         0     13037         1         0     13040         1         0
     13042         1         0     13044         1         0     13047         1         0
     13049         1         0     13051         1         0     13054         1         0
     13056         1         0     13058         1         0     13061         1         0
     13063         1         0     13065         1         0     13068         1         0
     13071         2         0     13074         1         0     13077         2         0
     13081         1         0     13084         1         0     13087         1         0
     13090         1         0     13093         1         0     13096         1         0
     13099         1         0     13102         1         0     13105         1         0
     13108         1         0     13111         1         0     13114         1         0
     13117         1         0     13120         1         0     13123         1         0
     13126         1         0     13130         1         0     13134         1         0
     13137         1         0     13140         1         0     13143         1         0
     13145         1         0     13147         1         0     13150         1         0
     13153         1         0     13155         0         0     13156         1         0
     13160         1         0     13163         1         0     13166         1         0
     13168         0         0     13169         1         0     13173         1         0
     13176         1         0     13179         1         0     13181         1         0
     13185         1         0     13188         1         0     13191         1         0
     13194         1         0     13196         1         0     13200         1         0
     13204         1         0     13208         1         0     13211         1         0
     13214         1         0     13217         1         0     13219         1         0
     13221         1         0     13224         1         0     13227         1         0
     13229         0         0     13230         1         0     13234         1         0
     13237         1         0     13240         1         0     13242         0         0
     13243         1         0     13247         1         0     13250         1         0
     13253         1         0     13255         1         0     13259         1         0
     13262         1         0     13265         1         0     13268         1         0
     13270         1         0     13274         1         0     13278         1         0
     13282         1         0     13285         1         0     13288         1         0
     13291         1         0     13293         1         0     13295         1         0
     13298         1         0     13301         1         0     13303         0         0
     13304         1         0     13308         1         0     13311         1         0
     13314         1         0     13316         0         0     13317         1         0
     13321         1         0     13324         1         0     13327         1         0
     13329         1         0     13333         1         0     13336         1         0
     13339         1         0     13342         1         0     13344         1         0
     13348         1         0     13352         2         0     13368         2         0
     13379         1         0     13387         1         0     13396         1         0
     13399         1         0     13402         1         0     13404         1         0
     13406         1         0     13409         1         0     13411         1         0
     13413         1         0     13416         1         0     13418         1         0
     13420         1         0     13423         1         0     13425         1         0
     13427         1         0     13430         1         0     13433         2         0
     13436         1         0     13439         2         0     13443         1         0
     13446         1         0     13449         1         0     13452         1         0
     13455         1         0     13458         1         0     13461         1         0
     13464         1         0     13467         1         0     13470         1         0
     13473         1         0     13476         1         0     13479         1         0
     13482         1         0     13485         1         0     13488         1         0
     13492         1         0     13496         1         0     13499         1         0
     13502         1         0     13505         1         0     13507         1         0
     13509         1         0     13512         1         0     13515         1         0
     13517         0         0     13518         1         0     13522         1         0
     13525         1         0     13528         1         0     13530         0         0
     13531         1         0     13535         1         0     13538         1         0
     13541         1         0     13543         1         0     13547         1         0
     13550         1         0     13553         1         0     13556         1         0
     13558         1         0     13562         1         0     13566         1         0
     13570         1         0     13573         1         0     13576         1         0
     13579         1         0     13581         1         0     13583         1         0
     13586         1         0     13589         1         0     13591         0         0
     13592         1         0     13596         1         0     13599         1         0
     13602         1         0     13604         0         0     13605         1         0
     13609         1         0     13612         1         0     13615         1         0
     13617         1         0     13621         1         0     13624         1         0
     13627         1         0     13630         1         0     13632         1         0
     13636         1         0     13640         1         0     13644         1         0
     13647         1         0     13650         1         0     13653         1         0
     13655         1         0     13657         1         0     13660         1         0
     13663         1         0     13665         0         0     13666         1         0
     13670         1         0     13673         1         0     13676         1         0
     13678         0         0     13679         1         0     13683         1         0
     13686         1         0     13689         1         0     13691         1         0
     13695         1         0     13698         1         0     13701         1         0
     13704         1         0     13706         1         0     13710         1         0
     13714         2         0     13730         2         0     13741         1         0
     13745         1         0     13749         1         0     13751         1         0
     13753         1         0     13756         1         0     13759         1         0
     13762         1         0     13765         1         0     13768         1         0
     13771         1         0     13774         1         0     13777         1         0
     13780         1         0     13783         1         0     13786         1         0
     13789         1         0     13793         1         0     13798         1         0
     13801         1         0     13804         1         0     13807         1         0
     13810         1         0     13813         1         0     13816         1         0
     13818         1         0     13820         1         0     13823         1         0
     13826         1         0     13829         1         0     13832         1         0
     13835         1         0     13838         1         0     13841         1         0
     13845         2         0     13851         2         0     13854         2         0
     13865         1         0     13873         1         0     13882         1         0
     13885         1         0     13888         1         0     13890         1         0
     13892         1         0     13895         1         0     13897         1         0
     13899         1         0     13902         1         0     13904         1         0
     13906         1         0     13909         1         0     13911         1         0
     13913         1         0     13916         1         0     13919         1         0
     13922         1         0     13925         1         0     13929         1         0
     13932         1         0     13935         1         0     13938         1         0
     13941         1         0     13944         1         0     13947         1         0
     13950         1         0     13953         1         0     13956         1         0
     13959         1         0     13962         1         0     13965         1         0
     13968         1         0     13971         1         0     13974         1         0
     13978         2         0     13985         2         0     13996         1         0
     14004         1         0     14013         1         0     14016         1         0
     14019         1         0     14021         1         0     14023         1         0
     14026         1         0     14028         1         0     14030         1         0
     14033         1         0     14035         1         0     14037         1         0
     14040         1         0     14042         1         0     14044         1         0
     14047         1         0     14050         1         0     14053         1         0
     14056         1         0     14060         1         0     14063         1         0
     14066         1         0     14069         1         0     14072         1         0
     14075         1         0     14078         1         0     14081         1         0
     14084         1         0     14087         1         0     14090         1         0
     14093         1         0     14096         1         0     14099         1         0
     14102         1         0     14105         1         0     14109         1         0
     14113         1         0     14116         1         0     14119         1         0
     14122         1         0     14124         1         0     14126         1         0
     14129         1         0     14132         1         0     14134         0         0
     14135         1         0     14139         1         0     14142         1         0
     14145         1         0     14147         0         0     14148         1         0
     14152         1         0     14155         1         0     14158         1         0
     14160         1         0     14164         1         0     14167         1         0
     14170         1         0     14173         1         0     14175         1         0
     14179         1         0     14183         2         0     14190         2         0
     14201         1         0     14209         1         0     14218         1         0
     14221         1         0     14224         1         0     14226         1         0
     14228         1         0     14231         1         0     14233         1         0
     14235         1         0     14238         1         0     14240         1         0
     14242         1         0     14245         1         0     14247         1         0
     14249         1         0     14252         1         0     14255         1         0
     14258         1         0     14261         1         0     14265         1         0
     14268         1         0     14271         1         0     14274         1         0
     14277         1         0     14280         1         0     14283         1         0
     14286         1         0     14289         1         0     14292         1         0
     14295         1         0     14298         1         0     14301         1         0
     14304         1         0     14307         1         0     14310         1         0
     14314         1         0     14318         1         0     14321         1         0
     14324         1         0     14327         1         0     14329         1         0
     14331         1         0     14334         1         0     14337         1         0
     14339         0         0     14340         1         0     14344         1         0
     14347         1         0     14350         1         0     14352         0         0
     14353         1         0     14357         1         0     14360         1         0
     14363         1         0     14365         1         0     14369         1         0
     14372         1         0     14375         1         0     14378         1         0
     14380         1         0     14384         1         0     14388         1         0
     14392         1         0     14395         1         0     14398         1         0
     14401         1         0     14403         1         0     14405         1         0
     14408         1         0     14411         1         0     14413         0         0
     14414         1         0     14418         1         0     14421         1         0
     14424         1         0     14426         0         0     14427         1         0
     14431         1         0     14434         1         0     14437         1         0
     14439         1         0     14443         1         0     14446         1         0
     14449         1         0     14452         1         0     14454         1         0
     14458         1         0     14462         1         0     14466         1         0
     14469         1         0     14472         1         0     14475         1         0
     14477         1         0     14479         1         0     14482         1         0
     14485         1         0     14487         0         0     14488         1         0
     14492         1         0     14495         1         0     14498         1         0
     14500         0         0     14501         1         0     14505         1         0
     14508         1         0     14511         1         0     14513         1         0
     14517         1         0     14520         1         0     14523         1         0
     14526         1         0     14528         1         0     14532         1         0
     14536         2         0     14552         2         0     14563         1         0
     14571         1         0     14580         1         0     14583         1         0
     14586         1         0     14589         1         0     14592         1         0
     14595         1         0     14598         1         0     14600         1         0
     14602         1         0     14605         1         0     14608         1         0
     14611         1         0     14614         1         0     14617         1         0
     14620         1         0     14623         1         0     14627         1         0
     14630         1         0     14633         1         0     14636         1         0
     14639         1         0     14642         1         0     14645         1         0
     14648         1         0     14651         1         0     14654         1         0
     14657         1         0     14660         1         0     14663         1         0
     14666         1         0     14670         2         0     14676         2         0
     14679         2         0     14690         1         0     14698         1         0
     14707         1         0     14710         1         0     14713         1         0
     14715         1         0     14717         1         0     14720         1         0
     14722         1         0     14724         1         0     14727         1         0
     14729         1         0     14731         1         0     14734         1         0
     14736         1         0     14738         1         0     14741         1         0
     14744         1         0     14747         1         0     14750         1         0
     14754         1         0     14757         1         0     14760         1         0
     14763         1         0     14766         1         0     14769         1         0
     14772         1         0     14775         1         0     14778         1         0
     14781         1         0     14784         1         0     14787         1         0
     14790         1         0     14793         1         0     14796         1         0
     14799         1         0     14803         2         0     14819         2         0
     14830         1         0     14834         1         0     14838         1         0
     14840         1         0     14842         1         0     14845         1         0
     14848         1         0     14851         1         0     14854         1         0
     14857         1         0     14860         1         0     14863         1         0
     14866         1         0     14869         1         0     14872         1         0
     14875         1         0     14878         1         0     14882         1         0
     14887         1         0     14890         1         0     14893         1         0
     14896         1         0     14899         1         0     14902         1         0
     14905         1         0     14907         1         0     14909         1         0
     14912         1         0     14915         1         0     14918         1         0
     14921         1         0     14924         1         0     14927         1         0
     14930         1         0     14934         2         0     14950         2         0
     14961         1         0     14969         1         0     14978         1         0
     14981         1         0     14984         1         0     14987         1         0
     14990         1         0     14993         1         0     14996         1         0
     14998         1         0     15000         1         0     15003         1         0
     15005         1         0     15007         1         0     15010         1         0
     15013         1         0     15016         1         0     15019         1         0
     15023         1         0     15026         1         0     15029         1         0
     15032         1         0     15035         1         0     15038         1         0
     15041         1         0     15044         1         0     15047         1         0
     15050         1         0     15053         1         0     15056         1         0
     15059         1         0     15062         1         0     15065         1         0
     15068         1         0     15072         2         0     15079         2         0
     15090         1         0     15098         1         0     15107         1         0
     15110         1         0     15113         1         0     15115         1         0
     15117         1         0     15120         1         0     15122         1         0
     15124         1         0     15127         1         0     15129         1         0
     15131         1         0     15134         1         0     15136         1         0
     15138         1         0     15141         1         0     15144         1         0
     15147         1         0     15150         1         0     15154         1         0
     15157         1         0     15160         1         0     15163         1         0
     15166         1         0     15169         1         0     15172         1         0
     15175         1         0     15178         1         0     15181         1         0
     15184         1         0     15187         1         0     15190         1         0
     15193         1         0     15196         1         0     15199         1         0
     15203         1         0     15207         1         0     15210         1         0
     15213         1         0     15216         1         0     15218         1         0
     15220         1         0     15223         1         0     15226         1         0
     15228         0         0     15229         1         0     15233         1         0
     15236         1         0     15239         1         0     15241         0         0
     15242         1         0     15246         1         0     15249         1         0
     15252         1         0     15254         1         0     15258         1         0
     15261         1         0     15264         1         0     15267         1         0
     15269         1         0     15273         1         0     15277         2         0
     15283         2         0     15286         2         0     15297         1         0
     15305         1         0     15314         1         0     15317         1         0
     15320         1         0     15322         1         0     15324         1         0
     15327         1         0     15329         1         0     15331         1         0
     15334         1         0     15336         1         0     15338         1         0
     15341         1         0     15343         1         0     15345         1         0
     15348         1         0     15351         1         0     15354         1         0
     15357         1         0     15361         1         0     15364         1         0
     15367         1         0     15370         1         0     15373         1         0
     15376         1         0     15379         1         0     15382         1         0
     15385         1         0     15388         1         0     15391         1         0
     15394         1         0     15397         1         0     15400         1         0
     15403         1         0     15406         1         0     15410         2         0
     15417         2         0     15428         1         0     15436         1         0
     15445         1         0     15448         1         0     15451         1         0
     15454         1         0     15457         1         0     15460         1         0
     15463         1         0     15465         1         0     15467         1         0
     15470         1         0     15473         1         0     15476         1         0
     15479         1         0     15482         1         0     15485         1         0
     15488         1         0     15492         1         0     15495         1         0
     15498         1         0     15501         1         0     15504         1         0
     15507         1         0     15510         1         0     15513         1         0
     15516         1         0     15519         1         0     15522         1         0
     15525         1         0     15528         1         0     15531         1         0
     15534         1         0     15537         1         0     15541         1         0
     15545         1         0     15548         1         0     15551         1         0
     15554         1         0     15556         1         0     15558         1         0
     15561         1         0     15564         1         0     15566         0         0
     15567         1         0     15571         1         0     15574         1         0
     15577         1         0     15579         0         0     15580         1         0
     15584         1         0     15587         1         0     15590         1         0
     15592         1         0     15596         1         0     15599         1         0
     15602         1         0     15605         1         0     15607         1         0
     15611         1         0     15615         1         0     15619         1         0
     15622         1         0     15625         1         0     15628         1         0
     15630         1         0     15632         1         0     15635         1         0
     15638         1         0     15640         0         0     15641         1         0
     15645         1         0     15648         1         0     15651         1         0
     15653         0         0     15654         1         0     15658         1         0
     15661         1         0     15664         1         0     15666         1         0
     15670         1         0     15673         1         0     15676         1         0
     15679         1         0     15681         1         0     15685         1         0
     15689         2         0     15705         2         0     15716         1         0
     15720         1         0     15724         1         0     15726         1         0
     15728         1         0     15731         1         0     15734         1         0
     15737         1         0     15740         1         0     15743         1         0
     15746         1         0     15749         1         0     15752         1         0
     15755         1         0     15758         1         0     15761         1         0
     15764         1         0     15768         1         0     15773         1         0
     15776         1         0     15779         1         0     15782         1         0
     15785         1         0     15788         1         0     15791         1         0
     15793         1         0     15795         1         0     15798         1         0
     15801         1         0     15804         1         0     15807         1         0
     15810         1         0     15813         1         0     15816         1         0
     15820         2         0     15827         2         0     15838         1         0
     15846         1         0     15855         1         0     15858         1         0
     15861         1         0     15863         1         0     15865         1         0
     15868         1         0     15870         1         0     15872         1         0
     15875         1         0     15877         1         0     15879         1         0
     15882         1         0     15884         1         0     15886         1         0
     15889         1         0     15892         1         0     15895         1         0
     15898         1         0     15902         1         0     15905         1         0
     15908         1         0     15911         1         0     15914         1         0
     15917         1         0     15920         1         0     15923         1         0
     15926         1         0     15929         1         0     15932         1         0
     15935         1         0     15938         1         0     15941         1         0
     15944         1         0     15947         1         0     15951         2         0
     15967         2         0     15978         1         0     15986         1         0
     15995         1         0     15998         1         0     16001         1         0
     16004         1         0     16007         1         0     16010         1         0
     16013         1         0     16015         1         0     16017         1         0
     16020         1         0     16022         1         0     16024         1         0
     16027         1         0     16030         1         0     16033         1         0
     16036         1         0     16040         1         0     16043         1         0
     16046         1         0     16049         1         0     16052         1         0
     16055         1         0     16058         1         0     16061         1         0
     16064         1         0     16067         1         0     16070         1         0
     16073         1         0     16076         1         0     16079         1         0
     16082         1         0     16085         1         0     16089         2         0
     16105         2         0     16116         1         0     16124         1         0
     16133         1         0     16136         1         0     16139         1         0
     16142         1         0     16145         1         0     16148         1         0
     16151         1         0     16153         1         0     16155         1         0
     16158         1         0     16160         1         0     16162         1         0
     16165         1         0     16168         1         0     16171         1         0
     16174         1         0     16178         1         0     16181         1         0
     16184         1         0     16187         1         0     16190         1         0
     16193         1         0     16196         1         0     16199         1         0
     16202         1         0     16205         1         0     16208         1         0
     16211         1         0     16214         1         0     16217         1         0
     16220         1         0     16223         1         0     16227         2         0
     16243         2         0     16254         1         0     16258         1         0
     16262         1         0     16264         1         0     16266         1         0
     16269         1         0     16272         1         0     16275         1         0
     16278         1         0     16281         1         0     16284         1         0
     16287         1         0     16290         1         0     16293         1         0
     16296         1         0     16299         1         0     16302         1         0
     16306         1         0     16311         1         0     16314         1         0
     16317         1         0     16320         1         0     16323         1         0
     16326         1         0     16329         1         0     16331         1         0
     16333         1         0     16336         1         0     16339         1         0
     16342         1         0     16345         1         0     16348         1         0
     16351         1         0     16354         1         0     16358         2         0
     16364         2         0     16367         2         0     16378         1         0
     16386         1         0     16395         1         0     16398         1         0
     16401         1         0     16403         1         0     16405         1         0
     16408         1         0     16410         1         0     16412         1         0
     16415         1         0     16417         1         0     16419         1         0
     16422         1         0     16424         1         0     16426         1         0
     16429         1         0     16432         1         0     16435         1         0
     16438         1         0     16442         1         0     16445         1         0
     16448         1         0     16451         1         0     16454         1         0
     16457         1         0     16460         1         0     16463         1         0
     16466         1         0     16469         1         0     16472         1         0
     16475         1         0     16478         1         0     16481         1         0
     16484         1         0     16487         1         0     16491         2         0
     16507         2         0     16518         1         0     16526         1         0
     16535         1         0     16538         1         0     16541         1         0
     16544         1         0     16547         1         0     16550         1         0
     16553         1         0     16555         1         0     16557         1         0
     16560         1         0     16562         1         0     16564         1         0
     16567         1         0     16570         1         0     16573         1         0
     16576         1         0     16580         1         0     16583         1         0
     16586         1         0     16589         1         0     16592         1         0
     16595         1         0     16598         1         0     16601         1         0
     16604         1         0     16607         1         0     16610         1         0
     16613         1         0     16616         1         0     16619         1         0
     16622         1         0     16625         1         0     16629         2         0
     16635         2         0     16638         2         0     16649         1         0
     16657         1         0     16666         1         0     16669         1         0
     16672         1         0     16674         1         0     16676         1         0
     16679         1         0     16681         1         0     16683         1         0
     16686         1         0     16688         1         0     16690         1         0
     16693         1         0     16695         1         0     16697         1         0
     16700         1         0     16703         1         0     16706         1         0
     16709         1         0     16713         1         0     16716         1         0
     16719         1         0     16722         1         0     16725         1         0
     16728         1         0     16731         1         0     16734         1         0
     16737         1         0     16740         1         0     16743         1         0
     16746         1         0     16749         1         0     16752         1         0
     16755         1         0     16758         1         0     16762         1         0
     16766         1         0     16769         1         0     16772         1         0
     16775         1         0     16777         1         0     16779         1         0
     16782         1         0     16785         1         0     16787         0         0
     16788         1         0     16792         1         0     16795         1         0
     16798         1         0     16800         0         0     16801         1         0
     16805         1         0     16808         1         0     16811         1         0
     16813         1         0     16817         1         0     16820         1         0
     16823         1         0     16826         1         0     16828         1         0
     16832         1         0     16836         1         0     16840         1         0
     16843         1         0     16846         1         0     16849         1         0
     16851         1         0     16853         1         0     16856         1         0
     16859         1         0     16861         0         0     16862         1         0
     16866         1         0     16869         1         0     16872         1         0
     16874         0         0     16875         1         0     16879         1         0
     16882         1         0     16885         1         0     16887         1         0
     16891         1         0     16894         1         0     16897         1         0
     16900         1         0     16902         1         0     16906         1         0
     16910         1         0     16914         1         0     16917         1         0
     16920         1         0     16923         1         0     16925         1         0
     16927         1         0     16930         1         0     16933         1         0
     16935         0         0     16936         1         0     16940         1         0
     16943         1         0     16946         1         0     16948         0         0
     16949         1         0     16953         1         0     16956         1         0
     16959         1         0     16961         1         0     16965         1         0
     16968         1         0     16971         1         0     16974         1         0
     16976         1         0     16980         1         0     16984         2         0
     16991         2         0     17002         1         0     17010         1         0
     17019         1         0     17022         1         0     17025         1         0
     17028         1         0     17031         1         0     17034         1         0
     17037         1         0     17039         1         0     17041         1         0
     17044         1         0     17047         1         0     17050         1         0
     17053         1         0     17056         1         0     17059         1         0
     17062         1         0     17066         1         0     17069         1         0
     17072         1         0     17075         1         0     17078         1         0
     17081         1         0     17084         1         0     17087         1         0
     17090         1         0     17093         1         0     17096         1         0
     17099         1         0     17102         1         0     17105         1         0
     17108         1         0     17111         1         0     17115         2         0
     17131         2         0     17142         1         0     17150         1         0
     17159         1         0     17162         1         0     17165         1         0
     17168         1         0     17171         1         0     17174         1         0
     17177         1         0     17179         1         0     17181         1         0
     17184         1         0     17186         1         0     17188         1         0
     17191         1         0     17194         1         0     17197         1         0
     17200         1         0     17204         1         0     17207         1         0
     17210         1         0     17213         1         0     17216         1         0
     17219         1         0     17222         1         0     17225         1         0
     17228         1         0     17231         1         0     17234         1         0
     17237         1         0     17240         1         0     17243         1         0
     17246         1         0     17249         1         0     17253         1         0
     17257         1         0     17260         1         0     17263         1         0
     17266         1         0     17268         1         0     17270         1         0
     17273         1         0     17276         1         0     17278         0         0
     17279         1         0     17283         1         0     17286         1         0
     17289         1         0     17291         0         0     17292         1         0
     17296         1         0     17299         1         0     17302         1         0
     17304         1         0     17308         1         0     17311         1         0
     17314         1         0     17317         1         0     17319         1         0
     17323         1         0     17327         2         0     17334         2         0
     17345         1         0     17353         1         0     17362         1         0
     17365         1         0     17368         1         0     17370         1         0
     17372         1         0     17375         1         0     17377         1         0
     17379         1         0     17382         1         0     17384         1         0
     17386         1         0     17389         1         0     17391         1         0
     17393         1         0     17396         1         0     17399         1         0
     17402         1         0     17405         1         0     17409         1         0
     17412         1         0     17415         1         0     17418         1         0
     17421         1         0     17424         1         0     17427         1         0
     17430         1         0     17433         1         0     17436         1         0
     17439         1         0     17442         1         0     17445         1         0
     17448         1         0     17451         1         0     17454         1         0
     17458         1         0     17462         1         0     17465         1         0
     17468         1         0     17471         1         0     17473         1         0
     17475         1         0     17478         1         0     17481         1         0
     17483         0         0     17484         1         0     17488         1         0
     17491         1         0     17494         1         0     17496         0         0
     17497         1         0     17501         1         0     17504         1         0
     17507         1         0     17509         1         0     17513         1         0
     17516         1         0     17519         1         0     17522         1         0
     17524         1         0     17528         1         0     17532         2         0
     17539         2         0     17550         1         0     17558         1         0
     17567         1         0     17570         1         0     17573         1         0
     17575         1         0     17577         1         0     17580         1         0
     17582         1         0     17584         1         0     17587         1         0
     17589         1         0     17591         1         0     17594         1         0
     17596         1         0     17598         1         0     17601         1         0
     17604         1         0     17607         1         0     17610         1         0
     17614         1         0     17617         1         0     17620         1         0
     17623         1         0     17626         1         0     17629         1         0
     17632         1         0     17635         1         0     17638         1         0
     17641         1         0     17644         1         0     17647         1         0
     17650         1         0     17653         1         0     17656         1         0
     17659         1         0     17663         2         0     17670         2         0
     17681         1         0     17689         1         0     17698         1         0
     17701         1         0     17704         1         0     17707         1         0
     17710         1         0     17713         1         0     17716         1         0
     17718         1         0     17720         1         0     17723         1         0
     17726         1         0     17729         1         0     17732         1         0
     17735         1         0     17738         1         0     17741         1         0
     17745         1         0     17748         1         0     17751         1         0
     17754         1         0     17757         1         0     17760         1         0
     17763         1         0     17766         1         0     17769         1         0
     17772         1         0     17775         1         0     17778         1         0
     17781         1         0     17784         1         0     17787         1         0
     17790         1         0     17794         2         0     17810         2         0
     17821         1         0     17829         1         0     17838         1         0
     17841         1         0     17844         1         0     17846         1         0
     17848         1         0     17851         1         0     17853         1         0
     17855         1         0     17858         1         0     17860         1         0
     17862         1         0     17865         1         0     17867         1         0
     17869         1         0     17872         1         0     17875         2         0
     17878         1         0     17881         2         0     17885         1         0
     17888         1         0     17891         1         0     17894         1         0
     17897         1         0     17900         1         0     17903         1         0
     17906         1         0     17909         1         0     17912         1         0
     17915         1         0     17918         1         0     17921         1         0
     17924         1         0     17927         1         0     17930         1         0
     17934         2         0     17950         2         0     17961         1         0
     17969         1         0     17978         1         0     17981         1         0
     17984         1         0     17986         1         0     17988         1         0
     17991         1         0     17993         1         0     17995         1         0
     17998         1         0     18000         1         0     18002         1         0
     18005         1         0     18007         1         0     18009         1         0
     18012         1         0     18015         2         0     18018         1         0
     18021         2         0     18025         1         0     18028         1         0
     18031         1         0     18034         1         0     18037         1         0
     18040         1         0     18043         1         0     18046         1         0
     18049         1         0     18052         1         0     18055         1         0
     18058         1         0     18061         1         0     18064         1         0
     18067         1         0     18070         1         0     18074         2         0
     18090         2         0     18101         1         0     18105         1         0
     18109         1         0     18111         1         0     18113         1         0
     18116         1         0     18119         1         0     18122         1         0
     18125         1         0     18128         1         0     18131         1         0
     18134         1         0     18137         1         0     18140         1         0
     18143         1         0     18146         1         0     18149         1         0
     18153         1         0     18158         1         0     18161         1         0
     18164         1         0     18167         1         0     18170         1         0
     18173         1         0     18176         1         0     18178         1         0
     18180         1         0     18183         1         0     18186         1         0
     18189         1         0     18192         1         0     18195         1         0
     18198         1         0     18201         1         0     18205         2         0
     18212         2         0     18223         1         0     18231         1         0
     18240         1         0     18243         1         0     18246         1         0
     18248         1         0     18250         1         0     18253         1         0
     18255         1         0     18257         1         0     18260         1         0
     18262         1         0     18264         1         0     18267         1         0
     18269         1         0     18271         1         0     18274         1         0
     18277         1         0     18280         1         0     18283         1         0
     18287         1         0     18290         1         0     18293         1         0
     18296         1         0     18299         1         0     18302         1         0
     18305         1         0     18308         1         0     18311         1         0
     18314         1         0     18317         1         0     18320         1         0
     18323         1         0     18326         1         0     18329         1         0
     18332         1         0     18336         1         0     18340         1         0
     18343         1         0     18346         1         0     18349         1         0
     18351         1         0     18353         1         0     18356         1         0
     18359         1         0     18361         0         0     18362         1         0
     18366         1         0     18369         1         0     18372         1         0
     18374         0         0     18375         1         0     18379         1         0
     18382         1         0     18385         1         0     18387         1         0
     18391         1         0     18394         1         0     18397         1         0
     18400         1         0     18402         1         0     18406         1         0
     18410         1         0     18414         1         0     18418         1         0
     18422         1         0     18426         1         0     18430         2         0
     18440         1         0     18448         1         0     18457         1         0
     18460         1         0     18463         1         0     18465         1         0
     18467         1         0     18470         1         0     18472         1         0
     18474         1         0     18477         1         0     18479         1         0
     18481         1         0     18484         1         0     18486         1         0
     18488         1         0     18491         1         0     18494         1         0
     18497         1         0     18500         1         0     18504         1         0
     18507         1         0     18510         1         0     18513         1         0
     18516         1         0     18519         1         0     18522         1         0
     18525         1         0     18528         1         0     18531         1         0
     18534         1         0     18537         1         0     18540         1         0
     18543         1         0     18546         1         0     18549         1         0
     18553         2         0     18569         2         0     18580         1         0
     18584         1         0     18588         1         0     18590         1         0
     18592         1         0     18595         1         0     18598         1         0
     18601         1         0     18604         1         0     18607         1         0
     18610         1         0     18613         1         0     18616         1         0
     18619         1         0     18622         1         0     18625         1         0
     18628         1         0     18632         1         0     18637         1         0
     18640         1         0     18643         1         0     18646         1         0
     18649         1         0     18652         1         0     18655         1         0
     18657         1         0     18659         1         0     18662         1         0
     18665         1         0     18668         1         0     18671         1         0
     18674         1         0     18677         1         0     18680         1         0
     18684         2         0     18700         2         0     18711         1         0
     18719         1         0     18728         1         0     18731         1         0
     18734         1         0     18736         1         0     18738         1         0
     18741         1         0     18743         1         0     18745         1         0
     18748         1         0     18750         1         0     18752         1         0
     18755         1         0     18757         1         0     18759         1         0
     18762         1         0     18765         2         0     18768         1         0
     18771         2         0     18775         1         0     18778         1         0
     18781         1         0     18784         1         0     18787         1         0
     18790         1         0     18793         1         0     18796         1         0
     18799         1         0     18802         1         0     18805         1         0
     18808         1         0     18811         1         0     18814         1         0
     18817         1         0     18820         1         0     18824         1         0
     18828         1         0     18831         1         0     18834         1         0
     18837         1         0     18839         1         0     18841         1         0
     18844         1         0     18847         1         0     18849         0         0
     18850         1         0     18854         1         0     18857         1         0
     18860         1         0     18862         0         0     18863         1         0
     18867         1         0     18870         1         0     18873         1         0
     18875         1         0     18879         1         0     18882         1         0
     18885         1         0     18888         1         0     18890         1         0
     18894         1         0     18898         2         0     18905         2         0
     18916         1         0     18924         1         0     18933         1         0
     18936         1         0     18939         1         0     18942         1         0
     18945         1         0     18948         1         0     18951         1         0
     18953         1         0     18955         1         0     18958         1         0
     18961         1         0     18964         1         0     18967         1         0
     18970         1         0     18973         1         0     18976         1         0
     18980         1         0     18983         1         0     18986         1         0
     18989         1         0     18992         1         0     18995         1         0
     18998         1         0     19001         1         0     19004         1         0
     19007         1         0     19010         1         0     19013         1         0
     19016         1         0     19019         1         0     19022         1         0
     19025         1         0     19029         2         0     19045         2         0
     19056         1         0     19060         1         0     19064         1         0
     19066         1         0     19068         1         0     19071         1         0
     19074         1         0     19077         1         0     19080         1         0
     19083         1         0     19086         1         0     19089         1         0
     19092         1         0     19095         1         0     19098         1         0
     19101         1         0     19104         1         0     19108         1         0
     19113         1         0     19116         1         0     19119         1         0
     19122         1         0     19125         1         0     19128         1         0
     19131         1         0     19133         1         0     19135         1         0
     19138         1         0     19141         1         0     19144         1         0
     19147         1         0     19150         1         0     19153         1         0
     19156         1         0     19160         2         0     19167         2         0
     19178         1         0     19186         1         0     19195         1         0
     19198         1         0     19201         1         0     19203         1         0
     19205         1         0     19208         1         0     19210         1         0
     19212         1         0     19215         1         0     19217         1         0
     19219         1         0     19222         1         0     19224         1         0
     19226         1         0     19229         1         0     19232         1         0
     19235         1         0     19238         1         0     19242         1         0
     19245         1         0     19248         1         0     19251         1         0
     19254         1         0     19257         1         0     19260         1         0
     19263         1         0     19266         1         0     19269         1         0
     19272         1         0     19275         1         0     19278         1         0
     19281         1         0     19284         1         0     19287         1         0
     19291         2         0     19297         2         0     19300         2         0
     19311         1         0     19319         1         0     19328         1         0
     19331         1         0     19334         1         0     19336         1         0
     19338         1         0     19341         1         0     19343         1         0
     19345         1         0     19348         1         0     19350         1         0
     19352         1         0     19355         1         0     19357         1         0
     19359         1         0     19362         1         0     19365         1         0
     19368         1         0     19371         1         0     19375         1         0
     19378         1         0     19381         1         0     19384         1         0
     19387         1         0     19390         1         0     19393         1         0
     19396         1         0     19399         1         0     19402         1         0
     19405         1         0     19408         1         0     19411         1         0
     19414         1         0     19417         1         0     19420         1         0
     19424         2         0     19431         2         0     19442         1         0
     19450         1         0     19459         1         0     19462         1         0
     19465         1         0     19467         1         0     19469         1         0
     19472         1         0     19474         1         0     19476         1         0
     19479         1         0     19481         1         0     19483         1         0
     19486         1         0     19488         1         0     19490         1         0
     19493         1         0     19496         1         0     19499         1         0
     19502         1         0     19506         1         0     19509         1         0
     19512         1         0     19515         1         0     19518         1         0
     19521         1         0     19524         1         0     19527         1         0
     19530         1         0     19533         1         0     19536         1         0
     19539         1         0     19542         1         0     19545         1         0
     19548         1         0     19551         1         0     19555         2         0
     19571         2         0     19582         1         0     19586         1         0
     19590         1         0     19592         1         0     19594         1         0
     19597         1         0     19600         1         0     19603         1         0
     19606         1         0     19609         1         0     19612         1         0
     19615         1         0     19618         1         0     19621         1         0
     19624         1         0     19627         1         0     19630         1         0
     19634         1         0     19639         1         0     19642         1         0
     19645         1         0     19648         1         0     19651         1         0
     19654         1         0     19657         1         0     19659         1         0
     19661         1         0     19664         1         0     19667         1         0
     19670         1         0     19673         1         0     19676         1         0
     19679         1         0     19682         1         0     19686         2         0
     19702         2         0     19713         1         0     19721         1         0
     19730         1         0     19733         1         0     19736         1         0
     19739         1         0     19742         1         0     19745         1         0
     19748         1         0     19750         1         0     19752         1         0
     19755         1         0     19757         1         0     19759         1         0
     19762         1         0     19765         1         0     19768         1         0
     19771         1         0     19775         1         0     19778         1         0
     19781         1         0     19784         1         0     19787         1         0
     19790         1         0     19793         1         0     19796         1         0
     19799         1         0     19802         1         0     19805         1         0
     19808         1         0     19811         1         0     19814         1         0
     19817         1         0     19820         1         0     19824         1         0
     19828         1         0     19831         1         0     19834         1         0
     19837         1         0     19839         1         0     19841         1         0
     19844         1         0     19847         1         0     19849         0         0
     19850         1         0     19854         1         0     19857         1         0
     19860         1         0     19862         0         0     19863         1         0
     19867         1         0     19870         1         0     19873         1         0
     19875         1         0     19879         1         0     19882         1         0
     19885         1         0     19888         1         0     19890         1         0
     19894         1         0     19898         2         0     19914         2         0
     19925         1         0     19933         1         0     19942         1         0
     19945         1         0     19948         1         0     19951         1         0
     19954         1         0     19957         1         0     19960         1         0
     19962         1         0     19964         1         0     19967         1         0
     19970         1         0     19973         1         0     19976         1         0
     19979         1         0     19982         1         0     19985         1         0
     19989         1         0     19992         1         0     19995         1         0
     19998         1         0     20001         1         0     20004         1         0
     20007         1         0     20010         1         0     20013         1         0
     20016         1         0     20019         1         0     20022         1         0
     20025         1         0     20028         1         0     20032         1         0
     20036         1         0     20039         1         0     20042         1         0
     20045         1         0     20047         1         0     20049         1         0
     20052         1         0     20055         1         0     20057         0         0
     20058         1         0     20062         1         0     20065         1         0
     20068         1         0     20070         0         0     20071         1         0
     20075         1         0     20078         1         0     20081         1         0
     20083         1         0     20087         1         0     20090         1         0
     20093         1         0     20096         1         0     20098         1         0
     20102         1         0     20106         2         0     20122         2         0
     20133         1         0     20141         1         0     20150         1         0
     20153         1         0     20156         1         0     20158         1         0
     20160         1         0     20163         1         0     20165         1         0
     20167         1         0     20170         1         0     20172         1         0
     20174         1         0     20177         1         0     20179         1         0
     20181         1         0     20184         1         0     20187         2         0
     20190         1         0     20193         2         0     20197         1         0
     20200         1         0     20203         1         0     20206         1         0
     20209         1         0     20212         1         0     20215         1         0
     20218         1         0     20221         1         0     20224         1         0
     20227         1         0     20230         1         0     20233         1         0
     20236         1         0     20239         1         0     20242         1         0
     20246         2         0     20253         2         0     20264         1         0
     20272         1         0     20281         1         0     20284         1         0
     20287         1         0     20289         1         0     20291         1         0
     20294         1         0     20296         1         0     20298         1         0
     20301         1         0     20303         1         0     20305         1         0
     20308         1         0     20310         1         0     20312         1         0
     20315         1         0     20318         1         0     20321         1         0
     20324         1         0     20328         1         0     20331         1         0
     20334         1         0     20337         1         0     20340         1         0
     20343         1         0     20346         1         0     20349         1         0
     20352         1         0     20355         1         0     20358         1         0
     20361         1         0     20364         1         0     20367         1         0
     20370         1         0     20373         1         0     20377         2         0
     20393         2         0     20404         1         0     20408         1         0
     20412         1         0     20414         1         0     20416         1         0
     20419         1         0     20422         1         0     20425         1         0
     20428         1         0     20431         1         0     20434         1         0
     20437         1         0     20440         1         0     20443         1         0
     20446         1         0     20449         1         0     20452         1         0
     20456         1         0     20461         1         0     20464         1         0
     20467         1         0     20470         1         0     20473         1         0
     20476         1         0     20479         1         0     20481         1         0
     20483         1         0     20486         1         0     20489         1         0
     20492         1         0     20495         1         0     20498         1         0
     20501         1         0     20504         1         0     20508         2         0
     20515         2         0     20526         1         0     20534         1         0
     20543         1         0     20546         1         0     20549         1         0
     20552         1         0     20555         1         0     20558         1         0
     20561         1         0     20563         1         0     20565         1         0
     20568         1         0     20571         1         0     20574         1         0
     20577         1         0     20580         1         0     20583         1         0
     20586         1         0     20590         1         0     20593         1         0
     20596         1         0     20599         1         0     20602         1         0
     20605         1         0     20608         1         0     20611         1         0
     20614         1         0     20617         1         0     20620         1         0
     20623         1         0     20626         1         0     20629         1         0
     20632         1         0     20635         1         0     20639         2         0
     20655         2         0     20666         1         0     20674         1         0
     20683         1         0     20686         1         0     20689         1         0
     20692         1         0     20695         1         0     20698         1         0
     20701         1         0     20703         1         0     20705         1         0
     20708         1         0     20710         1         0     20712         1         0
     20715         1         0     20718         1         0     20721         1         0
     20724         1         0     20728         1         0     20731         1         0
     20734         1         0     20737         1         0     20740         1         0
     20743         1         0     20746         1         0     20749         1         0
     20752         1         0     20755         1         0     20758         1         0
     20761         1         0     20764         1         0     20767         1         0
     20770         1         0     20773         1         0     20777         1         0
     20781         1         0     20784         1         0     20787         1         0
     20790         1         0     20792         1         0     20794         1         0
     20797         1         0     20800         1         0     20802         0         0
     20803         1         0     20807         1         0     20810         1         0
     20813         1         0     20815         0         0     20816         1         0
     20820         1         0     20823         1         0     20826         1         0
     20828         1         0     20832         1         0     20835         1         0
     20838         1         0     20841         1         0     20843         1         0
     20847         1         0     20851         2         0     20858         2         0
     20869         1         0     20877         1         0     20886         1         0
     20889         1         0     20892         1         0     20894         1         0
     20896         1         0     20899         1         0     20901         1         0
     20903         1         0     20906         1         0     20908         1         0
     20910         1         0     20913         1         0     20915         1         0
     20917         1         0     20920         1         0     20923         1         0
     20926         1         0     20929         1         0     20933         1         0
     20936         1         0     20939         1         0     20942         1         0
     20945         1         0     20948         1         0     20951         1         0
     20954         1         0     20957         1         0     20960         1         0
     20963         1         0     20966         1         0     20969         1         0
     20972         1         0     20975         1         0     20978         1         0
     20982         2         0     20989         2         0     21000         1         0
     21008         1         0     21017         1         0     21020         1         0
     21023         1         0     21025         1         0     21027         1         0
     21030         1         0     21032         1         0     21034         1         0
     21037         1         0     21039         1         0     21041         1         0
     21044         1         0     21046         1         0     21048         1         0
     21051         1         0     21054         1         0     21057         1         0
     21060         1         0     21064         1         0     21067         1         0
     21070         1         0     21073         1         0     21076         1         0
     21079         1         0     21082         1         0     21085         1         0
     21088         1         0     21091         1         0     21094         1         0
     21097         1         0     21100         1         0     21103         1         0
     21106         1         0     21109         1         0     21113         1         0
     21117         1         0     21120         1         0     21123         1         0
     21126         1         0     21128         1         0     21130         1         0
     21133         1         0     21136         1         0     21138         0         0
     21139         1         0     21143         1         0     21146         1         0
     21149         1         0     21151         0         0     21152         1         0
     21156         1         0     21159         1         0     21162         1         0
     21164         1         0     21168         1         0     21171         1         0
     21174         1         0     21177         1         0     21179         1         0
     21183         1         0     21187         2         0     21194         2         0
     21205         1         0     21213         1         0     21222         1         0
     21225         1         0     21228         1         0     21230         1         0
     21232         1         0     21235         1         0     21237         1         0
     21239         1         0     21242         1         0     21244         1         0
     21246         1         0     21249         1         0     21251         1         0
     21253         1         0     21256         1         0     21259         1         0
     21262         1         0     21265         1         0     21269         1         0
     21272         1         0     21275         1         0     21278         1         0
     21281         1         0     21284         1         0     21287         1         0
     21290         1         0     21293         1         0     21296         1         0
     21299         1         0     21302         1         0     21305         1         0
     21308         1         0     21311         1         0     21314         1         0
     21318         2         0     21334         2         0     21345         1         0
     21349         1         0     21353         1         0     21355         1         0
     21357         1         0     21360         1         0     21363         1         0
     21366         1         0     21369         1         0     21372         1         0
     21375         1         0     21378         1         0     21381         1         0
     21384         1         0     21387         1         0     21390         1         0
     21393         1         0     21397         1         0     21402         1         0
     21405         1         0     21408         1         0     21411         1         0
     21414         1         0     21417         1         0     21420         1         0
     21422         1         0     21424         1         0     21427         1         0
     21430         1         0     21433         1         0     21436         1         0
     21439         1         0     21442         1         0     21445         1         0
     21449         2         0     21455         2         0     21458         2         0
     21469         1         0     21477         1         0     21486         1         0
     21489         1         0     21492         1         0     21494         1         0
     21496         1         0     21499         1         0     21501         1         0
     21503         1         0     21506         1         0     21508         1         0
     21510         1         0     21513         1         0     21515         1         0
     21517         1         0     21520         1         0     21523         1         0
     21526         1         0     21529         1         0     21533         1         0
     21536         1         0     21539         1         0     21542         1         0
     21545         1         0     21548         1         0     21551         1         0
     21554         1         0     21557         1         0     21560         1         0
     21563         1         0     21566         1         0     21569         1         0
     21572         1         0     21575         1         0     21578         1         0
     21582         2         0     21598         2         0     21609         1         0
     21613         1         0     21617         1         0     21619         1         0
     21621         1         0     21624         1         0     21627         1         0
     21630         1         0     21633         1         0     21636         1         0
     21639         1         0     21642         1         0     21645         1         0
     21648         1         0     21651         1         0     21654         1         0
     21657         1         0     21661         1         0     21666         1         0
     21669         1         0     21672         1         0     21675         1         0
     21678         1         0     21681         1         0     21684         1         0
     21686         1         0     21688         1         0     21691         1         0
     21694         1         0     21697         1         0     21700         1         0
     21703         1         0     21706         1         0     21709         1         0
     21713         2         0     21729         2         0     21740         1         0
     21744         1         0     21748         1         0     21750         1         0
     21752         1         0     21755         1         0     21758         1         0
     21761         1         0     21764         1         0     21767         1         0
     21770         1         0     21773         1         0     21776         1         0
     21779         1         0     21782         1         0     21785         1         0
     21788         1         0     21792         1         0     21797         1         0
     21800         1         0     21803         1         0     21806         1         0
     21809         1         0     21812         1         0     21815         1         0
     21817         1         0     21819         1         0     21822         1         0
     21825         1         0     21828         1         0     21831         1         0
     21834         1         0     21837         1         0     21840         1         0
     21844         2         0     21860         2         0     21871         1         0
     21875         1         0     21879         1         0     21881         1         0
     21883         1         0     21886         1         0     21889         1         0
     21892         1         0     21895         1         0     21898         1         0
     21901         1         0     21904         1         0     21907         1         0
     21910         1         0     21913         1         0     21916         1         0
     21919         1         0     21923         1         0     21928         1         0
     21931         1         0     21934         1         0     21937         1         0
     21940         1         0     21943         1         0     21946         1         0
     21948         1         0     21950         1         0     21953         1         0
     21956         1         0     21959         1         0     21962         1         0
     21965         1         0     21968         1         0     21971         1         0
     21975         2         0     21991         2         0     22002         1         0
     22010         1         0     22019         1         0     22022         1         0
     22025         1         0     22027         1         0     22029         1         0
     22032         1         0     22034         1         0     22036         1         0
     22039         1         0     22041         1         0     22043         1         0
     22046         1         0     22048         1         0     22050         1         0
     22053         1         0     22056         2         0     22059         1         0
     22062         2         0     22066         1         0     22069         1         0
     22072         1         0     22075         1         0     22078         1         0
     22081         1         0     22084         1         0     22087         1         0
     22090         1         0     22093         1         0     22096         1         0
     22099         1         0     22102         1         0     22105         1         0
     22108         1         0     22111         1         0     22115         1         0
     22119         1         0     22122         1         0     22125         1         0
     22128         1         0     22130         1         0     22132         1         0
     22135         1         0     22138         1         0     22140         0         0
     22141         1         0     22145         1         0     22148         1         0
     22151         1         0     22153         0         0     22154         1         0
     22158         1         0     22161         1         0     22164         1         0
     22166         1         0     22170         1         0     22173         1         0
     22176         1         0     22179         1         0     22181         1         0
     22185         1         0     22189         2         0     22196         2         0
     22207         1         0     22215         1         0     22224         1         0
     22227         1         0     22230         1         0     22233         1         0
     22236         1         0     22239         1         0     22242         1         0
     22244         1         0     22246         1         0     22249         1         0
     22252         1         0     22255         1         0     22258         1         0
     22261         1         0     22264         1         0     22267         1         0
     22271         1         0     22274         1         0     22277         1         0
     22280         1         0     22283         1         0     22286         1         0
     22289         1         0     22292         1         0     22295         1         0
     22298         1         0     22301         1         0     22304         1         0
     22307         1         0     22310         1         0     22313         1         0
     22316         1         0

         0         0 !NUMLP NUMLPH

         0 !NCRTERM: cross-terms

