;;
;; Generated by CHARMM-GUI (http://www.charmm-gui.org) v1.7
;;
;; psf2itp_mol.py
;;
;; Correspondance:
;; jul316@lehigh.edu or wonpil@lehigh.edu
;;
;; CHARMM36 FF in GROMACS format
;;


[ defaults ]
; nbfunc	comb-rule	gen-pairs	fudgeLJ	fudgeQQ
1	2	yes	1.0	1.0

[ atomtypes ]
; name	at.num	mass	charge	ptype	sigma	epsilon	;	sigma_14	epsilon_14
   CG2D1     6    12.0110     -0.285     A    3.72395664183e-01    2.845120e-01 
   CG2O2     6    12.0110      0.753     A    3.02905564168e-01    4.100320e-01 
  CG2R61     6    12.0110     -0.053     A    3.55005321205e-01    2.928800e-01 
  CG2RC0     6    12.0110     -0.056     A    3.31414323148e-01    4.142160e-01 
   CG311     6    12.0110      0.020     A    3.56359487256e-01    1.338880e-01 ;   3.38541512893e-01    4.184000e-02 
   CG321     6    12.0110     -0.200     A    3.58141284692e-01    2.343040e-01 ;   3.38541512893e-01    4.184000e-02 
   CG331     6    12.0110     -0.098     A    3.65268474438e-01    3.263520e-01 ;   3.38541512893e-01    4.184000e-02 
  CG3RC1     6    12.0110      0.081     A    3.56359487256e-01    1.338880e-01 ;   3.38541512893e-01    4.184000e-02 
    HGA1     1     1.0080      0.090     A    2.38760856462e-01    1.882800e-01 
    HGA2     1     1.0080      0.090     A    2.38760856462e-01    1.464400e-01 
    HGA3     1     1.0080      0.090     A    2.38760856462e-01    1.004160e-01 
    HGA4     1     1.0080      0.165     A    2.22724679535e-01    1.297040e-01 
    HGP1     1     1.0080      0.432     A    4.00013524445e-02    1.924640e-01 
   HGR61     1     1.0080      0.127     A    2.42003727796e-01    1.255200e-01 
   NG301     7    14.0070     -0.607     A    3.56359487256e-01    1.464400e-01 
   OG2D1     8    15.9994     -0.559     A    3.02905564168e-01    5.020800e-01 ;   2.49451641079e-01    5.020800e-01 
   OG301     8    15.9994     -0.376     A    2.93996576986e-01    4.184000e-01 
   OG311     8    15.9994     -0.570     A    3.14487247504e-01    8.037464e-01 
  OG3C51     8    15.9994     -0.134     A    2.93996576986e-01    4.184000e-01 
  OG3C61     8    15.9994     -0.354     A    2.93996576986e-01    4.184000e-01 

[ bondtypes ]
; i	j	func	b0	Kb
  CG2D1   CG2D1     1  1.340000e-01  3.681920e+05
  CG2D1   CG311     1  1.502000e-01  3.054320e+05
  CG2D1   CG321     1  1.502000e-01  3.054320e+05
  CG2D1   CG331     1  1.504000e-01  3.204944e+05
  CG2D1    HGA4     1  1.100000e-01  3.016664e+05
  CG2O2  CG2R61     1  1.480000e-01  2.125472e+05
  CG2O2   CG311     1  1.522000e-01  1.673600e+05
  CG2O2   CG321     1  1.522000e-01  1.673600e+05
  CG2O2   CG331     1  1.522000e-01  1.673600e+05
  CG2O2   OG2D1     1  1.220000e-01  6.276000e+05
  CG2O2   OG311     1  1.400000e-01  1.924640e+05
 CG2R61  CG2R61     1  1.375000e-01  2.552240e+05
 CG2R61  CG2RC0     1  1.360000e-01  2.510400e+05
 CG2R61   CG311     1  1.490000e-01  1.924640e+05
 CG2R61   CG321     1  1.490000e-01  1.924640e+05
 CG2R61   CG331     1  1.490000e-01  1.924640e+05
 CG2R61   HGR61     1  1.080000e-01  2.845120e+05
 CG2R61   NG301     1  1.410000e-01  2.719600e+05
 CG2R61   OG301     1  1.382000e-01  1.924640e+05
 CG2R61   OG311     1  1.411000e-01  2.797422e+05
 CG2RC0  CG2RC0     1  1.385000e-01  3.012480e+05
 CG2RC0  CG3RC1     1  1.520000e-01  2.552240e+05
 CG2RC0  OG3C51     1  1.389000e-01  2.761440e+05
  CG311   CG311     1  1.500000e-01  1.861880e+05
  CG311   CG321     1  1.538000e-01  1.861880e+05
  CG311   CG331     1  1.538000e-01  1.861880e+05
  CG311  CG3RC1     1  1.524000e-01  1.861880e+05
  CG311    HGA1     1  1.111000e-01  2.585712e+05
  CG311    HGA3     1  1.111000e-01  2.694496e+05
  CG311   NG301     1  1.450000e-01  1.673600e+05
  CG311   OG301     1  1.415000e-01  3.012480e+05
  CG311   OG311     1  1.420000e-01  3.581504e+05
  CG311  OG3C61     1  1.415000e-01  3.012480e+05
  CG321   CG321     1  1.530000e-01  1.861880e+05
  CG321   CG331     1  1.528000e-01  1.861880e+05
  CG321  CG3RC1     1  1.524000e-01  1.861880e+05
  CG321    HGA2     1  1.111000e-01  2.585712e+05
  CG321   NG301     1  1.450000e-01  1.673600e+05
  CG321   OG301     1  1.415000e-01  3.012480e+05
  CG321   OG311     1  1.420000e-01  3.581504e+05
  CG321  OG3C61     1  1.415000e-01  3.012480e+05
  CG331   CG331     1  1.530000e-01  1.861880e+05
  CG331  CG3RC1     1  1.538000e-01  1.861880e+05
  CG331    HGA3     1  1.111000e-01  2.694496e+05
  CG331   NG301     1  1.442000e-01  2.635920e+05
  CG331   OG301     1  1.415000e-01  3.012480e+05
  CG331   OG311     1  1.420000e-01  3.581504e+05
 CG3RC1  CG3RC1     1  1.523000e-01  1.861880e+05
 CG3RC1    HGA1     1  1.111000e-01  2.585712e+05
 CG3RC1  OG3C51     1  1.420000e-01  2.175680e+05
  OG301   CG2D1     1  1.502000e-01  2.008320e+05
  OG301   OG311     1  1.513000e-01  1.395782e+05
  OG311    HGP1     1  9.600000e-02  4.560560e+05

[ pairtypes ]
; i	j	func	sigma1-4	epsilon1-4
  CG2D1   CG311     1  3.55468588538e-01  1.09105371453e-01 
  CG2D1   CG321     1  3.55468588538e-01  1.09105371453e-01 
  CG2D1   CG331     1  3.55468588538e-01  1.09105371453e-01 
  CG2D1  CG3RC1     1  3.55468588538e-01  1.09105371453e-01 
  CG2D1   OG2D1     1  3.10923652631e-01  3.77952093472e-01 
  CG2O2   CG311     1  3.20723538531e-01  1.30979917850e-01 
  CG2O2   CG321     1  3.20723538531e-01  1.30979917850e-01 
  CG2O2   CG331     1  3.20723538531e-01  1.30979917850e-01 
  CG2O2  CG3RC1     1  3.20723538531e-01  1.30979917850e-01 
  CG2O2   OG2D1     1  2.76178602624e-01  4.53727744975e-01 
 CG2R61   CG311     1  3.46773417049e-01  1.10698234855e-01 
 CG2R61   CG321     1  3.46773417049e-01  1.10698234855e-01 
 CG2R61   CG331     1  3.46773417049e-01  1.10698234855e-01 
 CG2R61  CG3RC1     1  3.46773417049e-01  1.10698234855e-01 
 CG2R61   OG2D1     1  3.02228481142e-01  3.83469934154e-01 
 CG2RC0   CG311     1  3.34977918021e-01  1.31646486622e-01 
 CG2RC0   CG321     1  3.34977918021e-01  1.31646486622e-01 
 CG2RC0   CG331     1  3.34977918021e-01  1.31646486622e-01 
 CG2RC0  CG3RC1     1  3.34977918021e-01  1.31646486622e-01 
 CG2RC0   OG2D1     1  2.90432982114e-01  4.56036806936e-01 
  CG311   CG311     1  3.38541512893e-01  4.18400000000e-02 
  CG311   CG321     1  3.38541512893e-01  4.18400000000e-02 
  CG311   CG331     1  3.38541512893e-01  4.18400000000e-02 
  CG311  CG3RC1     1  3.38541512893e-01  4.18400000000e-02 
  CG311    HGA1     1  2.88651184677e-01  8.87560431745e-02 
  CG311    HGA2     1  2.88651184677e-01  7.82754725313e-02 
  CG311    HGA3     1  2.88651184677e-01  6.48182492821e-02 
  CG311    HGA4     1  2.80633096214e-01  7.36669217492e-02 
  CG311    HGP1     1  1.89271432669e-01  8.97368027066e-02 
  CG311   HGR61     1  2.90272620344e-01  7.24690057887e-02 
  CG311   NG301     1  3.47450500075e-01  7.82754725313e-02 
  CG311   OG2D1     1  2.93996576986e-01  1.44938011577e-01 
  CG311   OG301     1  3.16269044940e-01  1.32309697301e-01 
  CG311   OG311     1  3.26514380198e-01  1.83381431383e-01 
  CG311  OG3C51     1  3.16269044940e-01  1.32309697301e-01 
  CG311  OG3C61     1  3.16269044940e-01  1.32309697301e-01 
  CG321   CG321     1  3.38541512893e-01  4.18400000000e-02 
  CG321   CG331     1  3.38541512893e-01  4.18400000000e-02 
  CG321  CG3RC1     1  3.38541512893e-01  4.18400000000e-02 
  CG321    HGA1     1  2.88651184677e-01  8.87560431745e-02 
  CG321    HGA2     1  2.88651184677e-01  7.82754725313e-02 
  CG321    HGA3     1  2.88651184677e-01  6.48182492821e-02 
  CG321    HGA4     1  2.80633096214e-01  7.36669217492e-02 
  CG321    HGP1     1  1.89271432669e-01  8.97368027066e-02 
  CG321   HGR61     1  2.90272620344e-01  7.24690057887e-02 
  CG321   NG301     1  3.47450500075e-01  7.82754725313e-02 
  CG321   OG2D1     1  2.93996576986e-01  1.44938011577e-01 
  CG321   OG301     1  3.16269044940e-01  1.32309697301e-01 
  CG321   OG311     1  3.26514380198e-01  1.83381431383e-01 
  CG321  OG3C51     1  3.16269044940e-01  1.32309697301e-01 
  CG321  OG3C61     1  3.16269044940e-01  1.32309697301e-01 
  CG331   CG331     1  3.38541512893e-01  4.18400000000e-02 
  CG331  CG3RC1     1  3.38541512893e-01  4.18400000000e-02 
  CG331    HGA1     1  2.88651184677e-01  8.87560431745e-02 
  CG331    HGA2     1  2.88651184677e-01  7.82754725313e-02 
  CG331    HGA3     1  2.88651184677e-01  6.48182492821e-02 
  CG331    HGA4     1  2.80633096214e-01  7.36669217492e-02 
  CG331    HGP1     1  1.89271432669e-01  8.97368027066e-02 
  CG331   HGR61     1  2.90272620344e-01  7.24690057887e-02 
  CG331   NG301     1  3.47450500075e-01  7.82754725313e-02 
  CG331   OG2D1     1  2.93996576986e-01  1.44938011577e-01 
  CG331   OG301     1  3.16269044940e-01  1.32309697301e-01 
  CG331   OG311     1  3.26514380198e-01  1.83381431383e-01 
  CG331  OG3C51     1  3.16269044940e-01  1.32309697301e-01 
  CG331  OG3C61     1  3.16269044940e-01  1.32309697301e-01 
 CG3RC1  CG3RC1     1  3.38541512893e-01  4.18400000000e-02 
 CG3RC1    HGA1     1  2.88651184677e-01  8.87560431745e-02 
 CG3RC1    HGA2     1  2.88651184677e-01  7.82754725313e-02 
 CG3RC1    HGA3     1  2.88651184677e-01  6.48182492821e-02 
 CG3RC1    HGA4     1  2.80633096214e-01  7.36669217492e-02 
 CG3RC1    HGP1     1  1.89271432669e-01  8.97368027066e-02 
 CG3RC1   HGR61     1  2.90272620344e-01  7.24690057887e-02 
 CG3RC1   NG301     1  3.47450500075e-01  7.82754725313e-02 
 CG3RC1   OG2D1     1  2.93996576986e-01  1.44938011577e-01 
 CG3RC1   OG301     1  3.16269044940e-01  1.32309697301e-01 
 CG3RC1   OG311     1  3.26514380198e-01  1.83381431383e-01 
 CG3RC1  OG3C51     1  3.16269044940e-01  1.32309697301e-01 
 CG3RC1  OG3C61     1  3.16269044940e-01  1.32309697301e-01 
   HGA1   OG2D1     1  2.44106248770e-01  3.07459952514e-01 
   HGA2   OG2D1     1  2.44106248770e-01  2.71154190821e-01 
   HGA3   OG2D1     1  2.44106248770e-01  2.24537002029e-01 
   HGA4   OG2D1     1  2.36088160307e-01  2.55189702614e-01 
   HGP1   OG2D1     1  1.44726496762e-01  3.10857403193e-01 
  HGR61   OG2D1     1  2.45727684437e-01  2.51040000000e-01 
  NG301   OG2D1     1  3.02905564168e-01  2.71154190821e-01 
  OG2D1   OG2D1     1  2.49451641079e-01  5.02080000000e-01 
  OG2D1   OG301     1  2.71724109033e-01  4.58334236120e-01 
  OG2D1   OG311     1  2.81969444291e-01  6.35251912639e-01 
  OG2D1  OG3C51     1  2.71724109033e-01  4.58334236120e-01 
  OG2D1  OG3C61     1  2.71724109033e-01  4.58334236120e-01 

[ angletypes ]
; i	j	k	func	th0	cth	S0	Kub
  CG2D1   CG2D1   CG311     5  1.2350000e+02  4.0166400e+02  0.0000000e+00  0.0000000e+00
  CG2D1   CG2D1   CG321     5  1.2350000e+02  4.0166400e+02  0.0000000e+00  0.0000000e+00
  CG2D1   CG2D1   CG331     5  1.2350000e+02  4.0166400e+02  0.0000000e+00  0.0000000e+00
  CG2D1   CG2D1    HGA4     5  1.1950000e+02  4.3513600e+02  0.0000000e+00  0.0000000e+00
  CG2D1   CG311   CG2D1     5  1.1400000e+02  2.5104000e+02  0.0000000e+00  0.0000000e+00
  CG2D1   CG311   CG311     5  1.1220000e+02  2.6777600e+02  0.0000000e+00  0.0000000e+00
  CG2D1   CG311   CG321     5  1.1220000e+02  2.6777600e+02  0.0000000e+00  0.0000000e+00
  CG2D1   CG311  CG3RC1     5  1.1220000e+02  2.6777600e+02  0.0000000e+00  0.0000000e+00
  CG2D1   CG311    HGA1     5  1.1150000e+02  3.7656000e+02  0.0000000e+00  0.0000000e+00
  CG2D1   CG311   OG301     5  9.9000000e+01  1.6736000e+02  0.0000000e+00  0.0000000e+00
  CG2D1   CG321   CG2D1     5  1.1400000e+02  2.5104000e+02  0.0000000e+00  0.0000000e+00
  CG2D1   CG321   CG311     5  1.1220000e+02  2.6777600e+02  0.0000000e+00  0.0000000e+00
  CG2D1   CG321   CG321     5  1.1220000e+02  2.6777600e+02  0.0000000e+00  0.0000000e+00
  CG2D1   CG321   CG331     5  1.1220000e+02  2.6777600e+02  0.0000000e+00  0.0000000e+00
  CG2D1   CG321    HGA2     5  1.1150000e+02  3.7656000e+02  0.0000000e+00  0.0000000e+00
  CG2D1   CG321   OG301     5  9.9000000e+01  1.6736000e+02  0.0000000e+00  0.0000000e+00
  CG2D1   CG321   OG311     5  1.1010000e+02  6.3345760e+02  0.0000000e+00  0.0000000e+00
  CG2D1   CG331    HGA3     5  1.1150000e+02  3.5145600e+02  0.0000000e+00  0.0000000e+00
  CG2O2  CG2R61  CG2R61     5  1.2000000e+02  3.7656000e+02  0.0000000e+00  0.0000000e+00
  CG2O2   CG311   CG2O2     5  1.0750000e+02  4.3346240e+02  0.0000000e+00  0.0000000e+00
  CG2O2   CG311  CG2R61     5  1.0750000e+02  3.3472000e+02  0.0000000e+00  0.0000000e+00
  CG2O2   CG311   CG311     5  1.0800000e+02  4.3513600e+02  0.0000000e+00  0.0000000e+00
  CG2O2   CG311   CG321     5  1.0800000e+02  4.3513600e+02  0.0000000e+00  0.0000000e+00
  CG2O2   CG311   CG331     5  1.0800000e+02  4.3513600e+02  0.0000000e+00  0.0000000e+00
  CG2O2   CG311    HGA1     5  1.0950000e+02  4.1840000e+02  0.0000000e+00  0.0000000e+00
  CG2O2   CG311   OG301     5  1.0900000e+02  3.7656000e+02  0.0000000e+00  0.0000000e+00
  CG2O2   CG311   OG311     5  1.0670000e+02  9.2048000e+02  0.0000000e+00  0.0000000e+00
  CG2O2   CG311  OG3C61     5  1.0900000e+02  5.8576000e+02  0.0000000e+00  0.0000000e+00
  CG2O2   CG321  CG2R61     5  1.0750000e+02  4.3346240e+02  0.0000000e+00  0.0000000e+00
  CG2O2   CG321   CG311     5  1.0800000e+02  4.3513600e+02  0.0000000e+00  0.0000000e+00
  CG2O2   CG321   CG321     5  1.0800000e+02  4.3513600e+02  0.0000000e+00  0.0000000e+00
  CG2O2   CG321   CG331     5  1.0800000e+02  4.3513600e+02  0.0000000e+00  0.0000000e+00
  CG2O2   CG321    HGA2     5  1.0950000e+02  2.7614400e+02  2.1630000e-01  2.5104000e+04
  CG2O2   CG321   OG301     5  1.0900000e+02  5.8576000e+02  0.0000000e+00  0.0000000e+00
  CG2O2   CG331    HGA3     5  1.0950000e+02  2.7614400e+02  2.1630000e-01  2.5104000e+04
  CG2O2   OG311    HGP1     5  1.1500000e+02  4.6024000e+02  0.0000000e+00  0.0000000e+00
 CG2R61   CG2O2   OG2D1     5  1.2310000e+02  5.8576000e+02  2.4420000e-01  1.6736000e+04
 CG2R61   CG2O2   OG311     5  1.1390000e+02  3.3472000e+02  2.3700000e-01  2.5104000e+04
 CG2R61  CG2R61  CG2R61     5  1.2000000e+02  3.3472000e+02  2.4162000e-01  2.9288000e+04
 CG2R61  CG2R61  CG2RC0     5  1.2000000e+02  4.1840000e+02  0.0000000e+00  0.0000000e+00
 CG2R61  CG2R61   CG311     5  1.2000000e+02  3.8325440e+02  0.0000000e+00  0.0000000e+00
 CG2R61  CG2R61   CG321     5  1.2000000e+02  3.8325440e+02  0.0000000e+00  0.0000000e+00
 CG2R61  CG2R61   CG331     5  1.2000000e+02  3.8325440e+02  0.0000000e+00  0.0000000e+00
 CG2R61  CG2R61   HGR61     5  1.2000000e+02  2.5104000e+02  2.1525000e-01  1.8409600e+04
 CG2R61  CG2R61   NG301     5  1.2000000e+02  3.5145600e+02  0.0000000e+00  0.0000000e+00
 CG2R61  CG2R61   OG301     5  1.2000000e+02  9.2048000e+02  0.0000000e+00  0.0000000e+00
 CG2R61  CG2R61   OG311     5  1.2000000e+02  3.7823360e+02  0.0000000e+00  0.0000000e+00
 CG2R61  CG2RC0  CG2RC0     5  1.2000000e+02  4.1840000e+02  0.0000000e+00  0.0000000e+00
 CG2R61  CG2RC0  CG3RC1     5  1.3000000e+02  5.0208000e+02  0.0000000e+00  0.0000000e+00
 CG2R61  CG2RC0  OG3C51     5  1.2530000e+02  4.1840000e+02  0.0000000e+00  0.0000000e+00
 CG2R61   CG311  CG2R61     5  1.0750000e+02  4.3346240e+02  0.0000000e+00  0.0000000e+00
 CG2R61   CG311   CG311     5  1.0750000e+02  4.3346240e+02  0.0000000e+00  0.0000000e+00
 CG2R61   CG311   CG321     5  1.0750000e+02  4.3346240e+02  0.0000000e+00  0.0000000e+00
 CG2R61   CG311   CG331     5  1.0750000e+02  4.3346240e+02  0.0000000e+00  0.0000000e+00
 CG2R61   CG311    HGA1     5  1.1100000e+02  3.5982400e+02  0.0000000e+00  0.0000000e+00
 CG2R61   CG311   OG301     5  1.1010000e+02  6.3345760e+02  0.0000000e+00  0.0000000e+00
 CG2R61   CG311   OG311     5  1.1280000e+02  6.8617600e+02  0.0000000e+00  0.0000000e+00
 CG2R61   CG321  CG2R61     5  1.0750000e+02  4.3346240e+02  0.0000000e+00  0.0000000e+00
 CG2R61   CG321   CG311     5  1.0750000e+02  4.3346240e+02  0.0000000e+00  0.0000000e+00
 CG2R61   CG321   CG321     5  1.0750000e+02  4.3346240e+02  0.0000000e+00  0.0000000e+00
 CG2R61   CG321   CG331     5  1.0750000e+02  4.3346240e+02  0.0000000e+00  0.0000000e+00
 CG2R61   CG321    HGA2     5  1.0750000e+02  4.1254240e+02  0.0000000e+00  0.0000000e+00
 CG2R61   CG321   OG311     5  1.1010000e+02  6.3345760e+02  0.0000000e+00  0.0000000e+00
 CG2R61   CG331    HGA3     5  1.0750000e+02  4.1254240e+02  0.0000000e+00  0.0000000e+00
 CG2R61   NG301   CG321     5  1.1400000e+02  4.7371248e+02  0.0000000e+00  0.0000000e+00
 CG2R61   NG301   CG331     5  1.1350000e+02  4.0166400e+02  0.0000000e+00  0.0000000e+00
 CG2R61   OG301  CG2R61     5  1.2000000e+02  1.5480800e+03  0.0000000e+00  0.0000000e+00
 CG2R61   OG301   CG321     5  1.0800000e+02  5.4392000e+02  0.0000000e+00  0.0000000e+00
 CG2R61   OG301   CG331     5  1.0800000e+02  5.4392000e+02  0.0000000e+00  0.0000000e+00
 CG2R61   OG311    HGP1     5  1.0800000e+02  5.4392000e+02  0.0000000e+00  0.0000000e+00
 CG2RC0  CG2R61   CG321     5  1.2000000e+02  3.8325440e+02  0.0000000e+00  0.0000000e+00
 CG2RC0  CG2R61   HGR61     5  1.2000000e+02  2.5104000e+02  2.1460000e-01  1.8409600e+04
 CG2RC0  CG2R61   OG311     5  1.2000000e+02  3.7823360e+02  0.0000000e+00  0.0000000e+00
 CG2RC0  CG2RC0  CG3RC1     5  1.1000000e+02  9.2048000e+02  0.0000000e+00  0.0000000e+00
 CG2RC0  CG2RC0  OG3C51     5  1.1470000e+02  6.6944000e+02  0.0000000e+00  0.0000000e+00
 CG2RC0  CG3RC1   CG311     5  1.0500000e+02  3.7656000e+02  0.0000000e+00  0.0000000e+00
 CG2RC0  CG3RC1   CG321     5  1.0500000e+02  3.7656000e+02  0.0000000e+00  0.0000000e+00
 CG2RC0  CG3RC1  CG3RC1     5  1.1370000e+02  5.8576000e+02  0.0000000e+00  0.0000000e+00
 CG2RC0  OG3C51  CG3RC1     5  1.0900000e+02  1.4225600e+03  0.0000000e+00  0.0000000e+00
  CG311   CG2D1   CG331     5  1.2350000e+02  4.0166400e+02  0.0000000e+00  0.0000000e+00
  CG311   CG2D1    HGA4     5  1.1600000e+02  3.3472000e+02  0.0000000e+00  0.0000000e+00
  CG311   CG2O2   OG2D1     5  1.2500000e+02  5.8576000e+02  2.4420000e-01  1.6736000e+04
  CG311   CG2O2   OG311     5  1.1050000e+02  4.6024000e+02  0.0000000e+00  0.0000000e+00
  CG311   CG311   CG311     5  1.1100000e+02  4.4643280e+02  2.5610000e-01  6.6944000e+03
  CG311   CG311   CG321     5  1.1100000e+02  4.4643280e+02  2.5610000e-01  6.6944000e+03
  CG311   CG311   CG331     5  1.0850000e+02  4.4643280e+02  2.5610000e-01  6.6944000e+03
  CG311   CG311  CG3RC1     5  1.0370000e+02  4.4643280e+02  2.5610000e-01  6.6944000e+03
  CG311   CG311    HGA1     5  1.1010000e+02  2.8869600e+02  2.1790000e-01  1.8853104e+04
  CG311   CG311   NG301     5  1.1120000e+02  6.1086400e+02  0.0000000e+00  0.0000000e+00
  CG311   CG311   OG301     5  1.0970000e+02  9.6232000e+02  0.0000000e+00  0.0000000e+00
  CG311   CG311   OG311     5  1.1010000e+02  6.3345760e+02  0.0000000e+00  0.0000000e+00
  CG311   CG311  OG3C61     5  1.1150000e+02  3.7656000e+02  0.0000000e+00  0.0000000e+00
  CG311   CG321   CG311     5  1.1350000e+02  4.8827280e+02  2.5610000e-01  9.3386880e+03
  CG311   CG321   CG321     5  1.1350000e+02  4.8827280e+02  2.5610000e-01  9.3386880e+03
  CG311   CG321   CG331     5  1.1350000e+02  4.8827280e+02  2.5610000e-01  9.3386880e+03
  CG311   CG321    HGA2     5  1.1010000e+02  2.7974224e+02  2.1790000e-01  1.8853104e+04
  CG311   CG321   NG301     5  1.1577000e+02  5.0735184e+02  0.0000000e+00  0.0000000e+00
  CG311   CG321   OG301     5  1.1010000e+02  6.3345760e+02  0.0000000e+00  0.0000000e+00
  CG311   CG321   OG311     5  1.1010000e+02  6.3345760e+02  0.0000000e+00  0.0000000e+00
  CG311   CG331    HGA3     5  1.1010000e+02  2.7974224e+02  2.1790000e-01  1.8853104e+04
  CG311  CG3RC1   CG321     5  1.1350000e+02  4.8827280e+02  2.5610000e-01  9.3386880e+03
  CG311  CG3RC1   CG331     5  1.1350000e+02  4.8827280e+02  2.5610000e-01  9.3386880e+03
  CG311  CG3RC1  CG3RC1     5  1.0800000e+02  4.4643280e+02  2.5610000e-01  6.6944000e+03
  CG311  CG3RC1    HGA1     5  1.1010000e+02  2.8869600e+02  2.1790000e-01  1.8853104e+04
  CG311  CG3RC1  OG3C51     5  1.0600000e+02  4.6024000e+02  0.0000000e+00  0.0000000e+00
  CG311   NG301   CG321     5  1.1200000e+02  5.8576000e+02  0.0000000e+00  0.0000000e+00
  CG311   NG301   CG331     5  1.1200000e+02  5.8576000e+02  0.0000000e+00  0.0000000e+00
  CG311   OG301   CG311     5  1.0970000e+02  7.9496000e+02  0.0000000e+00  0.0000000e+00
  CG311   OG301   CG331     5  1.0970000e+02  7.9496000e+02  0.0000000e+00  0.0000000e+00
  CG311   OG301   OG311     5  1.0400000e+02  6.0249600e+02  0.0000000e+00  0.0000000e+00
  CG311   OG311    HGP1     5  1.0600000e+02  4.1840000e+02  0.0000000e+00  0.0000000e+00
  CG311  OG3C61   CG311     5  1.0970000e+02  7.9496000e+02  0.0000000e+00  0.0000000e+00
  CG311  OG3C61   CG321     5  1.0970000e+02  7.9496000e+02  0.0000000e+00  0.0000000e+00
  CG321   CG2D1   CG331     5  1.2350000e+02  4.0166400e+02  0.0000000e+00  0.0000000e+00
  CG321   CG2D1    HGA4     5  1.1600000e+02  3.3472000e+02  0.0000000e+00  0.0000000e+00
  CG321   CG2O2   OG2D1     5  1.2500000e+02  5.8576000e+02  2.4420000e-01  1.6736000e+04
  CG321   CG2O2   OG311     5  1.1050000e+02  4.6024000e+02  0.0000000e+00  0.0000000e+00
  CG321   CG311   CG321     5  1.1350000e+02  4.8827280e+02  2.5610000e-01  9.3386880e+03
  CG321   CG311   CG331     5  1.1400000e+02  4.4643280e+02  2.5610000e-01  6.6944000e+03
  CG321   CG311  CG3RC1     5  1.0370000e+02  4.4643280e+02  2.5610000e-01  6.6944000e+03
  CG321   CG311    HGA1     5  1.1010000e+02  2.8869600e+02  2.1790000e-01  1.8853104e+04
  CG321   CG311   NG301     5  1.1220000e+02  3.6568160e+02  0.0000000e+00  0.0000000e+00
  CG321   CG311   OG301     5  1.0970000e+02  9.6232000e+02  0.0000000e+00  0.0000000e+00
  CG321   CG311   OG311     5  1.1000000e+02  6.3345760e+02  0.0000000e+00  0.0000000e+00
  CG321   CG311  OG3C61     5  1.1150000e+02  3.7656000e+02  0.0000000e+00  0.0000000e+00
  CG321   CG321   CG321     5  1.1360000e+02  4.8827280e+02  2.5610000e-01  9.3386880e+03
  CG321   CG321   CG331     5  1.1500000e+02  4.8534400e+02  2.5610000e-01  6.6944000e+03
  CG321   CG321  CG3RC1     5  1.1100000e+02  4.4643280e+02  2.5610000e-01  6.6944000e+03
  CG321   CG321    HGA2     5  1.1010000e+02  2.2175200e+02  2.1790000e-01  1.8853104e+04
  CG321   CG321   NG301     5  1.0700000e+02  4.7697600e+02  0.0000000e+00  0.0000000e+00
  CG321   CG321   OG301     5  1.1150000e+02  3.7656000e+02  0.0000000e+00  0.0000000e+00
  CG321   CG321   OG311     5  1.1010000e+02  6.3345760e+02  0.0000000e+00  0.0000000e+00
  CG321   CG321  OG3C61     5  1.1150000e+02  3.7656000e+02  0.0000000e+00  0.0000000e+00
  CG321   CG331    HGA3     5  1.1010000e+02  2.8953280e+02  2.1790000e-01  1.8853104e+04
  CG321  CG3RC1   CG331     5  1.1350000e+02  4.8827280e+02  2.5610000e-01  9.3386880e+03
  CG321  CG3RC1  CG3RC1     5  1.1100000e+02  4.4643280e+02  2.5610000e-01  6.6944000e+03
  CG321  CG3RC1    HGA1     5  1.1010000e+02  2.8869600e+02  2.1790000e-01  1.8853104e+04
  CG321   NG301   CG321     5  1.1200000e+02  5.8576000e+02  0.0000000e+00  0.0000000e+00
  CG321   NG301   CG331     5  1.1200000e+02  5.8576000e+02  0.0000000e+00  0.0000000e+00
  CG321   OG301   CG2D1     5  1.0970000e+02  7.9496000e+02  0.0000000e+00  0.0000000e+00
  CG321   OG301   CG311     5  1.0970000e+02  7.9496000e+02  0.0000000e+00  0.0000000e+00
  CG321   OG301   CG321     5  1.0970000e+02  7.9496000e+02  0.0000000e+00  0.0000000e+00
  CG321   OG301   CG331     5  1.0970000e+02  7.9496000e+02  0.0000000e+00  0.0000000e+00
  CG321   OG301   OG311     5  1.0400000e+02  6.0249600e+02  0.0000000e+00  0.0000000e+00
  CG321   OG311    HGP1     5  1.0600000e+02  4.1840000e+02  0.0000000e+00  0.0000000e+00
  CG321  OG3C61   CG321     5  1.0970000e+02  7.9496000e+02  0.0000000e+00  0.0000000e+00
  CG331   CG2D1   CG331     5  1.1900000e+02  4.6024000e+02  0.0000000e+00  0.0000000e+00
  CG331   CG2D1    HGA4     5  1.1700000e+02  1.8409600e+02  0.0000000e+00  0.0000000e+00
  CG331   CG2O2   OG2D1     5  1.2500000e+02  5.8576000e+02  2.4420000e-01  1.6736000e+04
  CG331   CG2O2   OG311     5  1.1050000e+02  4.6024000e+02  0.0000000e+00  0.0000000e+00
  CG331   CG311   CG331     5  1.1400000e+02  4.4643280e+02  2.5610000e-01  6.6944000e+03
  CG331   CG311    HGA1     5  1.1010000e+02  2.8869600e+02  2.1790000e-01  1.8853104e+04
  CG331   CG311   OG301     5  1.1150000e+02  3.7656000e+02  0.0000000e+00  0.0000000e+00
  CG331   CG311   OG311     5  1.1010000e+02  6.3345760e+02  0.0000000e+00  0.0000000e+00
  CG331   CG321   CG331     5  1.1400000e+02  4.4643280e+02  2.5610000e-01  6.6944000e+03
  CG331   CG321    HGA2     5  1.1010000e+02  2.8953280e+02  2.1790000e-01  1.8853104e+04
  CG331   CG321   NG301     5  1.1577000e+02  5.0735184e+02  0.0000000e+00  0.0000000e+00
  CG331   CG321   OG301     5  1.1150000e+02  3.7656000e+02  0.0000000e+00  0.0000000e+00
  CG331   CG321   OG311     5  1.1010000e+02  6.3345760e+02  0.0000000e+00  0.0000000e+00
  CG331   CG331    HGA3     5  1.1010000e+02  3.1380000e+02  2.1790000e-01  1.8853104e+04
  CG331  CG3RC1  CG3RC1     5  1.1350000e+02  4.8827280e+02  2.5610000e-01  9.3386880e+03
  CG331   NG301   CG331     5  1.1600000e+02  3.5564000e+02  0.0000000e+00  0.0000000e+00
  CG331   OG301   CG331     5  1.0970000e+02  7.9496000e+02  0.0000000e+00  0.0000000e+00
  CG331   OG301   OG311     5  1.0400000e+02  6.0249600e+02  0.0000000e+00  0.0000000e+00
  CG331   OG311    HGP1     5  1.0600000e+02  4.8116000e+02  0.0000000e+00  0.0000000e+00
 CG3RC1   CG311    HGA1     5  1.1010000e+02  2.8869600e+02  2.1790000e-01  1.8853104e+04
 CG3RC1   CG311   OG301     5  1.1010000e+02  6.3345760e+02  0.0000000e+00  0.0000000e+00
 CG3RC1   CG311   OG311     5  1.1010000e+02  6.3345760e+02  0.0000000e+00  0.0000000e+00
 CG3RC1   CG321    HGA2     5  1.1010000e+02  2.8869600e+02  2.1790000e-01  1.8853104e+04
 CG3RC1   CG331    HGA3     5  1.1010000e+02  2.7974224e+02  2.1790000e-01  1.8853104e+04
 CG3RC1  CG3RC1    HGA1     5  1.1010000e+02  2.8869600e+02  2.1790000e-01  1.8853104e+04
 CG3RC1  CG3RC1  OG3C51     5  1.0900000e+02  4.1840000e+02  0.0000000e+00  0.0000000e+00
   HGA2   CG321    HGA2     5  1.0900000e+02  2.9706400e+02  1.8020000e-01  4.5187200e+03
   HGA3   CG331    HGA3     5  1.0840000e+02  2.9706400e+02  1.8020000e-01  4.5187200e+03
  NG301   CG311    HGA1     5  1.0950000e+02  2.7112320e+02  2.1300000e-01  4.1840000e+04
  NG301   CG321    HGA2     5  1.0900000e+02  2.7112320e+02  0.0000000e+00  0.0000000e+00
  NG301   CG331    HGA3     5  1.0970000e+02  2.5522400e+02  2.1400000e-01  4.1840000e+04
  OG2D1   CG2O2   OG311     5  1.2300000e+02  4.1840000e+02  2.2620000e-01  1.7572800e+05
  OG301   CG2D1   CG2D1     5  1.2350000e+02  4.0166400e+02  0.0000000e+00  0.0000000e+00
  OG301   CG2D1    HGA4     5  1.1950000e+02  4.1003200e+02  0.0000000e+00  0.0000000e+00
  OG301   CG311    HGA1     5  1.0950000e+02  5.0208000e+02  0.0000000e+00  0.0000000e+00
  OG301   CG311   OG311     5  1.1650000e+02  3.7656000e+02  0.0000000e+00  0.0000000e+00
  OG301   CG311  OG3C61     5  1.1200000e+02  7.5312000e+02  0.0000000e+00  0.0000000e+00
  OG301   CG321    HGA2     5  1.0889000e+02  3.8409120e+02  0.0000000e+00  0.0000000e+00
  OG301   CG331    HGA3     5  1.0889000e+02  3.8409120e+02  0.0000000e+00  0.0000000e+00
  OG301   OG311    HGP1     5  9.8300000e+01  5.1044800e+02  0.0000000e+00  0.0000000e+00
  OG311   CG311    HGA1     5  1.0889000e+02  3.8409120e+02  0.0000000e+00  0.0000000e+00
  OG311   CG311   OG311     5  1.1715000e+02  8.4098400e+02  0.0000000e+00  0.0000000e+00
  OG311   CG321    HGA2     5  1.0889000e+02  3.8409120e+02  0.0000000e+00  0.0000000e+00
  OG311   CG331    HGA3     5  1.0889000e+02  3.8409120e+02  0.0000000e+00  0.0000000e+00
 OG3C51  CG3RC1    HGA1     5  1.0600000e+02  4.6024000e+02  0.0000000e+00  0.0000000e+00
 OG3C51  CG3RC1  OG3C51     5  1.0500000e+02  5.8576000e+02  0.0000000e+00  0.0000000e+00
 OG3C61   CG311    HGA1     5  1.0950000e+02  3.7656000e+02  0.0000000e+00  0.0000000e+00
 OG3C61   CG321    HGA2     5  1.0950000e+02  3.7656000e+02  0.0000000e+00  0.0000000e+00
 OG3C61   CG321  OG3C61     5  1.1050000e+02  3.7656000e+02  0.0000000e+00  0.0000000e+00

[ dihedraltypes ]
; i	j	k	l	func	phi0	cp	mult
  CG2D1   CG2D1   CG311   CG2D1     9  0.000000e+00  4.184000e-01      2
  CG2D1   CG2D1   CG311   CG2D1     9  1.800000e+02  1.255200e+00      3
  CG2D1   CG2D1   CG311   CG2D1     9  1.800000e+02  4.184000e+00      1
  CG2D1   CG2D1   CG311   CG311     9  1.800000e+02  2.510400e+00      1
  CG2D1   CG2D1   CG311   CG321     9  1.800000e+02  2.510400e+00      1
  CG2D1   CG2D1   CG311  CG3RC1     9  1.800000e+02  2.510400e+00      1
  CG2D1   CG2D1   CG311    HGA1     9  1.800000e+02  1.255200e+00      3
  CG2D1   CG2D1   CG311   OG301     9  1.800000e+02  1.673600e+00      2
  CG2D1   CG2D1   CG311   OG301     9  1.800000e+02  2.510400e+00      3
  CG2D1   CG2D1   CG311   OG301     9  1.800000e+02  7.949600e+00      1
  CG2D1   CG2D1   CG321   CG2D1     9  0.000000e+00  4.184000e-01      2
  CG2D1   CG2D1   CG321   CG2D1     9  0.000000e+00  8.368000e-01      4
  CG2D1   CG2D1   CG321   CG2D1     9  1.800000e+02  1.255200e+00      3
  CG2D1   CG2D1   CG321   CG2D1     9  1.800000e+02  4.184000e+00      1
  CG2D1   CG2D1   CG321   CG311     9  1.800000e+02  2.092000e+00      1
  CG2D1   CG2D1   CG321   CG311     9  1.800000e+02  5.439200e+00      3
  CG2D1   CG2D1   CG321   CG321     9  1.800000e+02  2.510400e+00      1
  CG2D1   CG2D1   CG321   CG331     9  1.800000e+02  8.368000e-01      2
  CG2D1   CG2D1   CG321   CG331     9  1.800000e+02  3.765600e+00      1
  CG2D1   CG2D1   CG321    HGA2     9  1.800000e+02  1.255200e+00      3
  CG2D1   CG2D1   CG321   OG301     9  1.800000e+02  1.673600e+00      2
  CG2D1   CG2D1   CG321   OG301     9  1.800000e+02  2.510400e+00      3
  CG2D1   CG2D1   CG321   OG301     9  1.800000e+02  7.949600e+00      1
  CG2D1   CG2D1   CG321   OG311     9  1.800000e+02  1.673600e+00      2
  CG2D1   CG2D1   CG321   OG311     9  1.800000e+02  2.510400e+00      3
  CG2D1   CG2D1   CG321   OG311     9  1.800000e+02  7.949600e+00      1
  CG2D1   CG2D1   CG331    HGA3     9  1.800000e+02  1.255200e+00      3
  CG2D1   CG2D1   OG301   CG321     9  1.800000e+02  2.510400e+00      1
  CG2D1   CG2D1   OG301   CG321     9  1.800000e+02  4.184000e+00      3
  CG2D1   CG2D1   OG301   CG321     9  1.800000e+02  9.623200e+00      2
  CG2D1   CG311   CG311   CG321     9  0.000000e+00  7.112800e-01      2
  CG2D1   CG311   CG311   CG321     9  1.800000e+02  2.092000e-01      3
  CG2D1   CG311   CG311   CG321     9  1.800000e+02  5.857600e-01      1
  CG2D1   CG311   CG311    HGA1     9  0.000000e+00  8.158800e-01      3
  CG2D1   CG311   CG311   NG301     9  0.000000e+00  1.673600e-01      3
  CG2D1   CG311   CG321   CG321     9  0.000000e+00  7.112800e-01      2
  CG2D1   CG311   CG321   CG321     9  1.800000e+02  2.092000e-01      3
  CG2D1   CG311   CG321   CG321     9  1.800000e+02  5.857600e-01      1
  CG2D1   CG311   CG321   CG331     9  0.000000e+00  7.112800e-01      2
  CG2D1   CG311   CG321   CG331     9  1.800000e+02  2.092000e-01      3
  CG2D1   CG311   CG321   CG331     9  1.800000e+02  5.857600e-01      1
  CG2D1   CG311   CG321    HGA2     9  0.000000e+00  8.158800e-01      3
  CG2D1   CG311  CG3RC1  CG2RC0     9  1.800000e+02  3.347200e+00      4
  CG2D1   CG311  CG3RC1   CG321     9  0.000000e+00  2.092000e-01      3
  CG2D1   CG311  CG3RC1  CG3RC1     9  0.000000e+00  6.276000e-01      3
  CG2D1   CG311  CG3RC1    HGA1     9  0.000000e+00  1.699959e+00      3
  CG2D1   CG311  CG3RC1  OG3C51     9  1.800000e+02  1.925770e+01      1
  CG2D1   CG311   OG301   CG311     9  0.000000e+00  2.468560e+00      3
  CG2D1   CG311   OG301   CG311     9  0.000000e+00  3.347200e+00      2
  CG2D1   CG311   OG301   CG311     9  1.800000e+02  4.184000e-01      1
  CG2D1   CG321   CG321   CG2D1     9  1.800000e+02  1.255200e+00      3
  CG2D1   CG321   CG321   CG2D1     9  1.800000e+02  3.765600e+00      1
  CG2D1   CG321   CG321   CG311     9  0.000000e+00  7.112800e-01      2
  CG2D1   CG321   CG321   CG311     9  1.800000e+02  2.092000e-01      3
  CG2D1   CG321   CG321   CG311     9  1.800000e+02  5.857600e-01      1
  CG2D1   CG321   CG321   CG321     9  0.000000e+00  7.112800e-01      2
  CG2D1   CG321   CG321   CG321     9  1.800000e+02  2.092000e-01      3
  CG2D1   CG321   CG321   CG321     9  1.800000e+02  5.857600e-01      1
  CG2D1   CG321   CG321   CG331     9  0.000000e+00  7.112800e-01      2
  CG2D1   CG321   CG321   CG331     9  1.800000e+02  2.092000e-01      3
  CG2D1   CG321   CG321   CG331     9  1.800000e+02  5.857600e-01      1
  CG2D1   CG321   CG321    HGA2     9  0.000000e+00  8.158800e-01      3
  CG2D1   CG321   CG331    HGA3     9  0.000000e+00  6.694400e-01      3
  CG2D1   CG321   OG301   CG321     9  0.000000e+00  8.368000e-01      3
  CG2D1   CG321   OG311    HGP1     9  0.000000e+00  5.857600e-01      3
  CG2D1   CG321   OG311    HGP1     9  0.000000e+00  2.928800e+00      2
  CG2D1   CG321   OG311    HGP1     9  0.000000e+00  5.439200e+00      1
  CG2D1   OG301   CG321   CG331     9  0.000000e+00  2.008320e+00      2
  CG2D1   OG301   CG321   CG331     9  0.000000e+00  3.305360e+00      1
  CG2D1   OG301   CG321   CG331     9  1.800000e+02  1.255200e-01      5
  CG2O2  CG2R61  CG2R61   CG2O2     9  1.800000e+02  1.297040e+01      2
  CG2O2  CG2R61  CG2R61  CG2R61     9  1.800000e+02  1.297040e+01      2
  CG2O2  CG2R61  CG2R61   HGR61     9  1.800000e+02  1.004160e+01      2
  CG2O2   CG311   CG311   CG311     9  0.000000e+00  8.368000e-01      3
  CG2O2   CG311   CG311   CG321     9  0.000000e+00  8.368000e-01      3
  CG2O2   CG311   CG311   CG331     9  0.000000e+00  8.368000e-01      3
  CG2O2   CG311   CG311    HGA1     9  0.000000e+00  8.368000e-01      3
  CG2O2   CG311   CG311   OG301     9  0.000000e+00  3.347200e+00      2
  CG2O2   CG311   CG311   OG301     9  1.800000e+02  8.368000e+00      1
  CG2O2   CG311   CG311   OG311     9  0.000000e+00  8.368000e-01      3
  CG2O2   CG311   CG321   CG2D1     9  0.000000e+00  8.368000e-01      3
  CG2O2   CG311   CG321   CG2O2     9  0.000000e+00  8.368000e-01      3
  CG2O2   CG311   CG321   CG311     9  0.000000e+00  8.368000e-01      3
  CG2O2   CG311   CG321   CG321     9  0.000000e+00  8.368000e-01      3
  CG2O2   CG311   CG321   CG331     9  0.000000e+00  8.368000e-01      3
  CG2O2   CG311   CG321    HGA2     9  0.000000e+00  8.368000e-01      3
  CG2O2   CG311   CG321   OG301     9  0.000000e+00  8.368000e-01      3
  CG2O2   CG311   CG321   OG311     9  0.000000e+00  8.368000e-01      3
  CG2O2   CG311   CG331    HGA3     9  0.000000e+00  8.368000e-01      3
  CG2O2   CG311   OG301   CG321     9  0.000000e+00  8.368000e-01      3
  CG2O2   CG311   OG311    HGP1     9  0.000000e+00  1.464400e+00      3
  CG2O2   CG311   OG311    HGP1     9  1.800000e+02  1.589920e+00      2
  CG2O2   CG311   OG311    HGP1     9  1.800000e+02  3.556400e+00      1
  CG2O2   CG311  OG3C61   CG311     9  0.000000e+00  2.468560e+00      3
  CG2O2   CG311  OG3C61   CG311     9  0.000000e+00  3.347200e+00      2
  CG2O2   CG311  OG3C61   CG311     9  1.800000e+02  4.184000e-01      1
  CG2O2   CG321   CG321   CG311     9  0.000000e+00  8.158800e-01      3
  CG2O2   CG321   CG321   CG321     9  0.000000e+00  4.602400e-01      4
  CG2O2   CG321   CG321   CG321     9  0.000000e+00  1.631760e+00      2
  CG2O2   CG321   CG321   CG321     9  1.800000e+02  3.765600e-01      6
  CG2O2   CG321   CG321   CG321     9  1.800000e+02  8.786400e-01      1
  CG2O2   CG321   CG321   CG321     9  1.800000e+02  1.464400e+00      3
  CG2O2   CG321   CG321   CG331     9  0.000000e+00  4.602400e-01      4
  CG2O2   CG321   CG321   CG331     9  0.000000e+00  1.631760e+00      2
  CG2O2   CG321   CG321   CG331     9  1.800000e+02  3.765600e-01      6
  CG2O2   CG321   CG321   CG331     9  1.800000e+02  8.786400e-01      1
  CG2O2   CG321   CG321   CG331     9  1.800000e+02  1.464400e+00      3
  CG2O2   CG321   CG321    HGA2     9  0.000000e+00  8.158800e-01      3
  CG2O2   CG321   CG321   OG301     9  0.000000e+00  8.368000e-01      3
  CG2O2   CG321   CG321   OG311     9  0.000000e+00  8.368000e-01      3
  CG2O2   CG321   CG331    HGA3     9  0.000000e+00  6.694400e-01      3
  CG2O2   CG321   OG301  CG2R61     9  0.000000e+00  2.092000e+00      2
  CG2O2   CG321   OG301  CG2R61     9  1.800000e+02  3.807440e+00      1
  CG2O2   CG321   OG301   CG331     9  0.000000e+00  2.468560e+00      3
  CG2O2   CG321   OG301   CG331     9  0.000000e+00  3.347200e+00      2
  CG2O2   CG321   OG301   CG331     9  1.800000e+02  4.184000e-01      1
 CG2R61   CG2O2   OG311    HGP1     9  1.800000e+02  2.092000e-01      3
 CG2R61   CG2O2   OG311    HGP1     9  1.800000e+02  1.046000e+00      6
 CG2R61   CG2O2   OG311    HGP1     9  1.800000e+02  4.079400e+00      1
 CG2R61   CG2O2   OG311    HGP1     9  1.800000e+02  1.129680e+01      2
 CG2R61  CG2R61  CG2R61  CG2R61     9  1.800000e+02  1.297040e+01      2
 CG2R61  CG2R61  CG2R61  CG2RC0     9  1.800000e+02  1.255200e+01      2
 CG2R61  CG2R61  CG2R61   CG311     9  1.800000e+02  1.297040e+01      2
 CG2R61  CG2R61  CG2R61   CG321     9  1.800000e+02  1.297040e+01      2
 CG2R61  CG2R61  CG2R61   CG331     9  1.800000e+02  1.297040e+01      2
 CG2R61  CG2R61  CG2R61   HGR61     9  1.800000e+02  1.757280e+01      2
 CG2R61  CG2R61  CG2R61   NG301     9  1.800000e+02  5.857600e+00      2
 CG2R61  CG2R61  CG2R61   OG301     9  1.800000e+02  1.297040e+01      2
 CG2R61  CG2R61  CG2R61   OG311     9  1.800000e+02  1.297040e+01      2
 CG2R61  CG2R61  CG2RC0  CG2RC0     9  1.800000e+02  1.255200e+01      2
 CG2R61  CG2R61  CG2RC0  CG3RC1     9  1.800000e+02  0.000000e+00      2
 CG2R61  CG2R61  CG2RC0  OG3C51     9  1.800000e+02  8.368000e+00      2
 CG2R61  CG2R61   CG311   CG2O2     9  0.000000e+00  8.368000e-01      2
 CG2R61  CG2R61   CG311  CG2R61     9  1.800000e+02  9.623200e-01      2
 CG2R61  CG2R61   CG311   CG311     9  1.800000e+02  9.623200e-01      2
 CG2R61  CG2R61   CG311   CG321     9  1.800000e+02  9.623200e-01      2
 CG2R61  CG2R61   CG311   CG331     9  1.800000e+02  9.623200e-01      2
 CG2R61  CG2R61   CG311    HGA1     9  1.800000e+02  4.184000e-01      6
 CG2R61  CG2R61   CG311   OG301     9  0.000000e+00  0.000000e+00      2
 CG2R61  CG2R61   CG311   OG311     9  1.800000e+02  2.928800e+00      2
 CG2R61  CG2R61   CG321   CG2O2     9  0.000000e+00  4.184000e-01      2
 CG2R61  CG2R61   CG321  CG2R61     9  1.800000e+02  9.623200e-01      2
 CG2R61  CG2R61   CG321   CG311     9  1.800000e+02  9.623200e-01      2
 CG2R61  CG2R61   CG321   CG321     9  1.800000e+02  9.623200e-01      2
 CG2R61  CG2R61   CG321   CG331     9  1.800000e+02  9.623200e-01      2
 CG2R61  CG2R61   CG321    HGA2     9  0.000000e+00  8.368000e-03      6
 CG2R61  CG2R61   CG321   OG311     9  0.000000e+00  0.000000e+00      2
 CG2R61  CG2R61   CG331    HGA3     9  0.000000e+00  8.368000e-03      6
 CG2R61  CG2R61   NG301   CG321     9  0.000000e+00  6.276000e-01      4
 CG2R61  CG2R61   NG301   CG321     9  1.800000e+02  6.276000e+00      2
 CG2R61  CG2R61   NG301   CG331     9  0.000000e+00  4.393200e-01      4
 CG2R61  CG2R61   NG301   CG331     9  1.800000e+02  1.464400e-01      6
 CG2R61  CG2R61   NG301   CG331     9  1.800000e+02  4.016640e+00      2
 CG2R61  CG2R61   OG301  CG2R61     9  1.800000e+02  5.020800e+00      2
 CG2R61  CG2R61   OG301   CG321     9  1.800000e+02  7.949600e-01      4
 CG2R61  CG2R61   OG301   CG321     9  1.800000e+02  6.778080e+00      2
 CG2R61  CG2R61   OG301   CG331     9  1.800000e+02  8.368000e-01      4
 CG2R61  CG2R61   OG301   CG331     9  1.800000e+02  6.610720e+00      2
 CG2R61  CG2R61   OG311    HGP1     9  1.800000e+02  4.142160e+00      2
 CG2R61  CG2RC0  CG2RC0  CG2R61     9  1.800000e+02  1.255200e+01      2
 CG2R61  CG2RC0  CG2RC0  CG3RC1     9  1.800000e+02  2.719600e+01      2
 CG2R61  CG2RC0  CG2RC0  OG3C51     9  1.800000e+02  1.673600e+01      2
 CG2R61  CG2RC0  CG3RC1   CG311     9  1.800000e+02  8.368000e+00      3
 CG2R61  CG2RC0  CG3RC1   CG321     9  1.800000e+02  8.368000e+00      3
 CG2R61  CG2RC0  CG3RC1  CG3RC1     9  1.800000e+02  1.255200e+01      2
 CG2R61  CG2RC0  OG3C51  CG3RC1     9  1.800000e+02  1.255200e+00      2
 CG2R61   CG311   CG311   CG321     9  0.000000e+00  1.673600e-01      3
 CG2R61   CG311   CG311   CG331     9  0.000000e+00  1.673600e-01      3
 CG2R61   CG311   CG311    HGA1     9  0.000000e+00  0.000000e+00      3
 CG2R61   CG311   CG321   CG2D1     9  0.000000e+00  1.673600e-01      3
 CG2R61   CG311   CG321   CG311     9  0.000000e+00  1.673600e-01      3
 CG2R61   CG311   CG321   CG321     9  0.000000e+00  1.673600e-01      3
 CG2R61   CG311   CG321   CG331     9  0.000000e+00  1.673600e-01      3
 CG2R61   CG311   CG321    HGA2     9  0.000000e+00  0.000000e+00      3
 CG2R61   CG311   CG321   OG301     9  0.000000e+00  8.368000e-01      3
 CG2R61   CG311   CG321   OG311     9  0.000000e+00  8.368000e-01      3
 CG2R61   CG311   CG331    HGA3     9  0.000000e+00  1.673600e-01      3
 CG2R61   CG311   OG301   CG321     9  0.000000e+00  8.368000e-01      3
 CG2R61   CG311   OG311    HGP1     9  0.000000e+00  2.259360e+00      2
 CG2R61   CG311   OG311    HGP1     9  0.000000e+00  3.221680e+00      3
 CG2R61   CG311   OG311    HGP1     9  0.000000e+00  4.518720e+00      1
 CG2R61   CG321   CG321   CG311     9  0.000000e+00  1.673600e-01      3
 CG2R61   CG321   CG321   CG321     9  0.000000e+00  1.673600e-01      3
 CG2R61   CG321   CG321   CG331     9  0.000000e+00  1.673600e-01      3
 CG2R61   CG321   CG321    HGA2     9  0.000000e+00  1.673600e-01      3
 CG2R61   CG321   CG321   OG301     9  0.000000e+00  8.368000e-01      3
 CG2R61   CG321   CG321   OG311     9  0.000000e+00  8.368000e-01      3
 CG2R61   CG321   CG331    HGA3     9  0.000000e+00  1.673600e-01      3
 CG2R61   CG321   OG311    HGP1     9  0.000000e+00  3.096160e+00      3
 CG2R61   CG321   OG311    HGP1     9  0.000000e+00  5.857600e+00      2
 CG2R61   CG321   OG311    HGP1     9  0.000000e+00  8.786400e+00      1
 CG2RC0  CG2R61  CG2R61   CG331     9  1.800000e+02  1.297040e+01      2
 CG2RC0  CG2R61  CG2R61   HGR61     9  1.800000e+02  1.255200e+01      2
 CG2RC0  CG2R61  CG2R61   OG301     9  1.800000e+02  1.297040e+01      2
 CG2RC0  CG2R61  CG2R61   OG311     9  1.800000e+02  1.297040e+01      2
 CG2RC0  CG2R61   CG321   CG311     9  1.800000e+02  9.623200e-01      2
 CG2RC0  CG2R61   CG321    HGA2     9  0.000000e+00  8.368000e-03      6
 CG2RC0  CG2R61   OG311    HGP1     9  1.800000e+02  4.142160e+00      2
 CG2RC0  CG2RC0  CG3RC1   CG311     9  1.800000e+02  8.368000e+00      3
 CG2RC0  CG2RC0  CG3RC1   CG321     9  1.800000e+02  8.368000e+00      3
 CG2RC0  CG2RC0  CG3RC1  CG3RC1     9  1.800000e+02  4.309520e+00      3
 CG2RC0  CG2RC0  OG3C51  CG3RC1     9  1.800000e+02  1.255200e+00      2
 CG2RC0  CG3RC1  CG3RC1   CG311     9  0.000000e+00  6.276000e-01      3
 CG2RC0  CG3RC1  CG3RC1    HGA1     9  0.000000e+00  6.276000e-01      3
 CG2RC0  CG3RC1  CG3RC1  OG3C51     9  0.000000e+00  5.020800e+00      3
  CG311   CG2D1   CG2D1   CG311     9  1.800000e+02  1.882800e+00      1
  CG311   CG2D1   CG2D1   CG311     9  1.800000e+02  3.556400e+01      2
  CG311   CG2D1   CG2D1    HGA4     9  1.800000e+02  4.184000e+00      2
  CG311   CG2O2   OG311    HGP1     9  1.800000e+02  8.577200e+00      2
  CG311  CG2R61  CG2R61   HGR61     9  1.800000e+02  1.004160e+01      2
  CG311  CG2R61  CG2R61   OG311     9  1.800000e+02  1.004160e+01      2
  CG311   CG311   CG311   CG311     9  1.800000e+02  2.092000e+00      4
  CG311   CG311   CG311   CG321     9  1.800000e+02  2.092000e+00      4
  CG311   CG311   CG311   CG331     9  1.800000e+02  2.092000e+00      4
  CG311   CG311   CG311    HGA1     9  0.000000e+00  8.158800e-01      3
  CG311   CG311   CG311   OG301     9  0.000000e+00  1.631760e+00      2
  CG311   CG311   CG311   OG301     9  1.800000e+02  6.694400e-01      1
  CG311   CG311   CG311   OG311     9  0.000000e+00  5.857600e-01      3
  CG311   CG311   CG311  OG3C61     9  0.000000e+00  2.510400e+00      3
  CG311   CG311   CG311  OG3C61     9  1.800000e+02  3.347200e-01      4
  CG311   CG311   CG311  OG3C61     9  1.800000e+02  7.949600e-01      1
  CG311   CG311   CG311  OG3C61     9  1.800000e+02  4.184000e+00      2
  CG311   CG311   CG321   CG2D1     9  0.000000e+00  8.368000e-01      3
  CG311   CG311   CG321  CG2R61     9  0.000000e+00  1.673600e-01      3
  CG311   CG311   CG321   CG311     9  0.000000e+00  8.368000e-01      3
  CG311   CG311   CG321   CG321     9  0.000000e+00  8.368000e-01      3
  CG311   CG311   CG321   CG331     9  0.000000e+00  8.368000e-01      3
  CG311   CG311   CG321    HGA2     9  0.000000e+00  8.158800e-01      3
  CG311   CG311   CG321   NG301     9  0.000000e+00  8.368000e-01      3
  CG311   CG311   CG321   OG301     9  1.800000e+02  8.368000e-01      3
  CG311   CG311   CG321   OG311     9  1.800000e+02  8.368000e-01      3
  CG311   CG311   CG331    HGA3     9  0.000000e+00  8.368000e-01      3
  CG311   CG311  CG3RC1  CG2RC0     9  1.800000e+02  3.347200e+00      4
  CG311   CG311  CG3RC1   CG321     9  0.000000e+00  2.092000e-01      3
  CG311   CG311  CG3RC1  CG3RC1     9  0.000000e+00  6.276000e-01      3
  CG311   CG311  CG3RC1    HGA1     9  0.000000e+00  6.276000e-01      3
  CG311   CG311   NG301   CG321     9  0.000000e+00  3.430880e+00      2
  CG311   CG311   NG301   CG321     9  0.000000e+00  4.267680e+00      3
  CG311   CG311   NG301   CG321     9  1.800000e+02  5.941280e+00      1
  CG311   CG311   NG301   CG331     9  0.000000e+00  3.430880e+00      2
  CG311   CG311   NG301   CG331     9  0.000000e+00  4.267680e+00      3
  CG311   CG311   NG301   CG331     9  1.800000e+02  5.941280e+00      1
  CG311   CG311   OG301   CG311     9  0.000000e+00  1.673600e+00      1
  CG311   CG311   OG301   CG311     9  0.000000e+00  2.050160e+00      3
  CG311   CG311   OG301   CG331     9  0.000000e+00  1.673600e+00      1
  CG311   CG311   OG301   CG331     9  0.000000e+00  2.050160e+00      3
  CG311   CG311   OG301   OG311     9  0.000000e+00  2.092000e+00      3
  CG311   CG311   OG301   OG311     9  1.800000e+02  4.602400e+00      1
  CG311   CG311   OG311    HGP1     9  0.000000e+00  7.531200e-01      2
  CG311   CG311   OG311    HGP1     9  0.000000e+00  1.924640e+00      3
  CG311   CG311   OG311    HGP1     9  0.000000e+00  5.564720e+00      1
  CG311   CG311  OG3C61   CG311     9  0.000000e+00  6.276000e-01      4
  CG311   CG311  OG3C61   CG311     9  0.000000e+00  2.845120e+00      2
  CG311   CG311  OG3C61   CG311     9  1.800000e+02  8.786400e-01      3
  CG311   CG311  OG3C61   CG311     9  1.800000e+02  2.217520e+00      1
  CG311   CG321   CG321   CG311     9  0.000000e+00  8.158800e-01      3
  CG311   CG321   CG321   CG321     9  0.000000e+00  2.092000e+00      3
  CG311   CG321   CG321   CG321     9  1.800000e+02  2.092000e+00      6
  CG311   CG321   CG321   CG331     9  0.000000e+00  4.527088e-01      4
  CG311   CG321   CG321   CG331     9  0.000000e+00  6.296920e-01      2
  CG311   CG321   CG321   CG331     9  0.000000e+00  8.531176e-01      5
  CG311   CG321   CG321   CG331     9  1.800000e+02  3.401592e-01      3
  CG311   CG321   CG321  CG3RC1     9  0.000000e+00  6.276000e-01      3
  CG311   CG321   CG321    HGA2     9  0.000000e+00  8.158800e-01      3
  CG311   CG321   CG321   OG301     9  0.000000e+00  1.631760e+00      2
  CG311   CG321   CG321   OG301     9  1.800000e+02  6.694400e-01      1
  CG311   CG321   CG321   OG311     9  0.000000e+00  8.158800e-01      3
  CG311   CG321   CG331    HGA3     9  0.000000e+00  6.694400e-01      3
  CG311   CG321   NG301  CG2R61     9  0.000000e+00  4.184000e-02      3
  CG311   CG321   NG301  CG2R61     9  0.000000e+00  1.255200e-01      2
  CG311   CG321   NG301  CG2R61     9  1.800000e+02  1.840960e+00      1
  CG311   CG321   OG301   CG311     9  0.000000e+00  1.213360e+00      2
  CG311   CG321   OG301   CG311     9  0.000000e+00  1.799120e+00      3
  CG311   CG321   OG301   CG311     9  0.000000e+00  2.384880e+00      1
  CG311   CG321   OG301   CG321     9  0.000000e+00  1.213360e+00      2
  CG311   CG321   OG301   CG321     9  0.000000e+00  1.799120e+00      3
  CG311   CG321   OG301   CG321     9  0.000000e+00  2.384880e+00      1
  CG311   CG321   OG301   CG331     9  0.000000e+00  1.213360e+00      2
  CG311   CG321   OG301   CG331     9  0.000000e+00  1.799120e+00      3
  CG311   CG321   OG301   CG331     9  0.000000e+00  2.384880e+00      1
  CG311   CG321   OG311    HGP1     9  0.000000e+00  5.857600e-01      2
  CG311   CG321   OG311    HGP1     9  0.000000e+00  1.004160e+00      3
  CG311   CG321   OG311    HGP1     9  0.000000e+00  4.727920e+00      1
  CG311  CG3RC1  CG3RC1   CG311     9  0.000000e+00  6.276000e-01      3
  CG311  CG3RC1  CG3RC1   CG321     9  0.000000e+00  1.673600e+01      3
  CG311  CG3RC1  CG3RC1   CG331     9  0.000000e+00  6.610720e-01      3
  CG311  CG3RC1  CG3RC1    HGA1     9  0.000000e+00  6.276000e-01      3
  CG311  CG3RC1  CG3RC1  OG3C51     9  0.000000e+00  5.020800e+00      3
  CG311  CG3RC1  OG3C51  CG2RC0     9  0.000000e+00  0.000000e+00      3
  CG311   OG301   OG311    HGP1     9  0.000000e+00  5.020800e-01      3
  CG311   OG301   OG311    HGP1     9  0.000000e+00  1.673600e+00      1
  CG311   OG301   OG311    HGP1     9  0.000000e+00  4.811600e+00      2
  CG321   CG2D1   CG2D1   CG321     9  1.800000e+02  1.882800e+00      1
  CG321   CG2D1   CG2D1   CG321     9  1.800000e+02  3.556400e+01      2
  CG321   CG2D1   CG2D1   CG331     9  1.800000e+02  1.882800e+00      1
  CG321   CG2D1   CG2D1   CG331     9  1.800000e+02  3.556400e+01      2
  CG321   CG2D1   CG2D1    HGA4     9  1.800000e+02  4.184000e+00      2
  CG321   CG2D1   CG331    HGA3     9  0.000000e+00  6.694400e-01      3
  CG321   CG2O2   OG311    HGP1     9  1.800000e+02  8.577200e+00      2
  CG321  CG2R61  CG2R61   CG331     9  1.800000e+02  1.004160e+01      2
  CG321  CG2R61  CG2R61   HGR61     9  1.800000e+02  1.004160e+01      2
  CG321  CG2R61  CG2R61   OG311     9  1.800000e+02  1.004160e+01      2
  CG321  CG2R61  CG2RC0  CG2RC0     9  1.800000e+02  1.297040e+01      2
  CG321  CG2R61  CG2RC0  CG3RC1     9  1.800000e+02  1.004160e+01      2
  CG321   CG311   CG311   CG321     9  1.800000e+02  2.092000e+00      4
  CG321   CG311   CG311   CG331     9  1.800000e+02  2.092000e+00      4
  CG321   CG311   CG311  CG3RC1     9  0.000000e+00  6.276000e-01      3
  CG321   CG311   CG311    HGA1     9  0.000000e+00  8.158800e-01      3
  CG321   CG311   CG311   OG311     9  0.000000e+00  5.857600e-01      3
  CG321   CG311   CG321   CG2D1     9  0.000000e+00  8.368000e-01      3
  CG321   CG311   CG321  CG2R61     9  0.000000e+00  1.673600e-01      3
  CG321   CG311   CG321   CG311     9  0.000000e+00  8.368000e-01      3
  CG321   CG311   CG321   CG321     9  0.000000e+00  8.368000e-01      3
  CG321   CG311   CG321   CG331     9  0.000000e+00  8.368000e-01      3
  CG321   CG311   CG321    HGA2     9  0.000000e+00  8.158800e-01      1
  CG321   CG311   CG321   NG301     9  0.000000e+00  8.368000e-01      3
  CG321   CG311   CG321   OG301     9  1.800000e+02  8.368000e-01      3
  CG321   CG311   CG321   OG311     9  1.800000e+02  8.368000e-01      3
  CG321   CG311   CG331    HGA3     9  0.000000e+00  8.368000e-01      3
  CG321   CG311  CG3RC1   CG331     9  0.000000e+00  2.092000e-01      3
  CG321   CG311  CG3RC1  CG3RC1     9  0.000000e+00  6.276000e-01      3
  CG321   CG311  CG3RC1    HGA1     9  0.000000e+00  6.276000e-01      3
  CG321   CG311   NG301   CG321     9  0.000000e+00  3.430880e+00      2
  CG321   CG311   NG301   CG321     9  0.000000e+00  4.267680e+00      3
  CG321   CG311   NG301   CG321     9  1.800000e+02  5.941280e+00      1
  CG321   CG311   NG301   CG331     9  0.000000e+00  3.430880e+00      2
  CG321   CG311   NG301   CG331     9  0.000000e+00  4.267680e+00      3
  CG321   CG311   NG301   CG331     9  1.800000e+02  5.941280e+00      1
  CG321   CG311   OG301   CG321     9  0.000000e+00  1.673600e+00      1
  CG321   CG311   OG301   CG321     9  0.000000e+00  2.050160e+00      3
  CG321   CG311   OG301   OG311     9  0.000000e+00  2.092000e+00      3
  CG321   CG311   OG301   OG311     9  1.800000e+02  4.602400e+00      1
  CG321   CG311   OG311    HGP1     9  0.000000e+00  1.255200e+00      1
  CG321   CG311   OG311    HGP1     9  0.000000e+00  1.255200e+00      3
  CG321   CG311  OG3C61   CG321     9  0.000000e+00  6.276000e-01      4
  CG321   CG311  OG3C61   CG321     9  0.000000e+00  2.845120e+00      2
  CG321   CG311  OG3C61   CG321     9  1.800000e+02  8.786400e-01      3
  CG321   CG311  OG3C61   CG321     9  1.800000e+02  2.217520e+00      1
  CG321   CG321   CG321   CG321     9  0.000000e+00  2.698680e-01      2
  CG321   CG321   CG321   CG321     9  0.000000e+00  3.957227e-01      4
  CG321   CG321   CG321   CG321     9  0.000000e+00  4.707418e-01      5
  CG321   CG321   CG321   CG321     9  1.800000e+02  6.265540e-01      3
  CG321   CG321   CG321   CG331     9  0.000000e+00  4.528762e-01      4
  CG321   CG321   CG321   CG331     9  0.000000e+00  6.297338e-01      2
  CG321   CG321   CG321   CG331     9  0.000000e+00  8.531594e-01      5
  CG321   CG321   CG321   CG331     9  1.800000e+02  3.402847e-01      3
  CG321   CG321   CG321  CG3RC1     9  0.000000e+00  6.276000e-01      3
  CG321   CG321   CG321    HGA2     9  0.000000e+00  8.158800e-01      3
  CG321   CG321   CG321   NG301     9  0.000000e+00  1.631760e+00      2
  CG321   CG321   CG321   NG301     9  1.800000e+02  6.694400e-01      1
  CG321   CG321   CG321   OG301     9  0.000000e+00  1.631760e+00      2
  CG321   CG321   CG321   OG301     9  1.800000e+02  6.694400e-01      1
  CG321   CG321   CG321   OG311     9  0.000000e+00  8.158800e-01      3
  CG321   CG321   CG321  OG3C61     9  0.000000e+00  2.510400e+00      3
  CG321   CG321   CG321  OG3C61     9  1.800000e+02  3.347200e-01      4
  CG321   CG321   CG321  OG3C61     9  1.800000e+02  7.949600e-01      1
  CG321   CG321   CG321  OG3C61     9  1.800000e+02  4.184000e+00      2
  CG321   CG321   CG331    HGA3     9  0.000000e+00  6.694400e-01      3
  CG321   CG321  CG3RC1  CG2RC0     9  1.800000e+02  3.347200e+00      4
  CG321   CG321  CG3RC1   CG311     9  0.000000e+00  8.368000e-01      3
  CG321   CG321  CG3RC1   CG331     9  0.000000e+00  8.368000e-01      3
  CG321   CG321  CG3RC1  CG3RC1     9  0.000000e+00  6.276000e-01      3
  CG321   CG321  CG3RC1    HGA1     9  0.000000e+00  6.276000e-01      3
  CG321   CG321   NG301   CG311     9  0.000000e+00  3.430880e+00      2
  CG321   CG321   NG301   CG311     9  0.000000e+00  4.267680e+00      3
  CG321   CG321   NG301   CG311     9  1.800000e+02  5.941280e+00      1
  CG321   CG321   NG301   CG321     9  0.000000e+00  3.430880e+00      2
  CG321   CG321   NG301   CG321     9  0.000000e+00  4.267680e+00      3
  CG321   CG321   NG301   CG321     9  1.800000e+02  5.941280e+00      1
  CG321   CG321   NG301   CG331     9  0.000000e+00  3.430880e+00      2
  CG321   CG321   NG301   CG331     9  0.000000e+00  4.267680e+00      3
  CG321   CG321   NG301   CG331     9  1.800000e+02  5.941280e+00      1
  CG321   CG321   OG301  CG2R61     9  0.000000e+00  8.368000e-02      3
  CG321   CG321   OG301  CG2R61     9  0.000000e+00  1.004160e+00      1
  CG321   CG321   OG301  CG2R61     9  0.000000e+00  1.213360e+00      2
  CG321   CG321   OG301   CG311     9  0.000000e+00  1.213360e+00      2
  CG321   CG321   OG301   CG311     9  0.000000e+00  1.799120e+00      3
  CG321   CG321   OG301   CG311     9  0.000000e+00  2.384880e+00      1
  CG321   CG321   OG301   CG321     9  0.000000e+00  1.213360e+00      2
  CG321   CG321   OG301   CG321     9  0.000000e+00  1.799120e+00      3
  CG321   CG321   OG301   CG321     9  0.000000e+00  2.384880e+00      1
  CG321   CG321   OG301   CG331     9  0.000000e+00  1.213360e+00      2
  CG321   CG321   OG301   CG331     9  0.000000e+00  1.799120e+00      3
  CG321   CG321   OG301   CG331     9  0.000000e+00  2.384880e+00      1
  CG321   CG321   OG311    HGP1     9  0.000000e+00  5.857600e-01      2
  CG321   CG321   OG311    HGP1     9  0.000000e+00  1.004160e+00      3
  CG321   CG321   OG311    HGP1     9  0.000000e+00  4.727920e+00      1
  CG321   CG321  OG3C61   CG311     9  0.000000e+00  6.276000e-01      4
  CG321   CG321  OG3C61   CG311     9  0.000000e+00  2.845120e+00      2
  CG321   CG321  OG3C61   CG311     9  1.800000e+02  8.786400e-01      3
  CG321   CG321  OG3C61   CG311     9  1.800000e+02  2.217520e+00      1
  CG321   CG321  OG3C61   CG321     9  0.000000e+00  6.276000e-01      4
  CG321   CG321  OG3C61   CG321     9  0.000000e+00  2.845120e+00      2
  CG321   CG321  OG3C61   CG321     9  1.800000e+02  8.786400e-01      3
  CG321   CG321  OG3C61   CG321     9  1.800000e+02  2.217520e+00      1
  CG321  CG3RC1  CG3RC1   CG321     9  0.000000e+00  6.276000e-01      3
  CG321  CG3RC1  CG3RC1   CG331     9  0.000000e+00  2.092000e-01      3
  CG321  CG3RC1  CG3RC1    HGA1     9  0.000000e+00  6.276000e-01      3
  CG321  CG3RC1  CG3RC1  OG3C51     9  0.000000e+00  5.020800e+00      3
  CG331   CG2D1   CG2D1   CG331     9  1.800000e+02  1.882800e+00      1
  CG331   CG2D1   CG2D1   CG331     9  1.800000e+02  3.556400e+01      2
  CG331   CG2D1   CG2D1    HGA4     9  1.800000e+02  4.184000e+00      2
  CG331   CG2D1   CG321   CG311     9  0.000000e+00  7.949600e-01      3
  CG331   CG2D1   CG321   CG321     9  0.000000e+00  7.949600e-01      3
  CG331   CG2D1   CG321   CG331     9  0.000000e+00  7.949600e-01      3
  CG331   CG2D1   CG321    HGA2     9  0.000000e+00  7.949600e-01      3
  CG331   CG2D1   CG321   OG301     9  0.000000e+00  7.949600e-01      3
  CG331   CG2D1   CG321   OG311     9  1.800000e+02  9.623200e-01      3
  CG331   CG2D1   CG321   OG311     9  1.800000e+02  1.046000e+00      1
  CG331   CG2D1   CG321   OG311     9  1.800000e+02  2.175680e+00      2
  CG331   CG2D1   CG331    HGA3     9  0.000000e+00  6.694400e-01      3
  CG331   CG2O2   OG311    HGP1     9  1.800000e+02  8.577200e+00      2
  CG331  CG2R61  CG2R61   CG331     9  1.800000e+02  1.004160e+01      2
  CG331  CG2R61  CG2R61   HGR61     9  1.800000e+02  1.004160e+01      2
  CG331  CG2R61  CG2R61   OG301     9  1.800000e+02  1.004160e+01      2
  CG331  CG2R61  CG2R61   OG311     9  1.800000e+02  1.004160e+01      2
  CG331   CG311   CG311   CG331     9  1.800000e+02  2.092000e+00      4
  CG331   CG311   CG311    HGA1     9  0.000000e+00  8.158800e-01      3
  CG331   CG311   CG311   OG311     9  0.000000e+00  5.857600e-01      3
  CG331   CG311   CG321   CG2D1     9  0.000000e+00  8.368000e-01      3
  CG331   CG311   CG321   CG2O2     9  0.000000e+00  4.602400e-01      4
  CG331   CG311   CG321   CG2O2     9  0.000000e+00  1.631760e+00      2
  CG331   CG311   CG321   CG2O2     9  1.800000e+02  3.765600e-01      6
  CG331   CG311   CG321   CG2O2     9  1.800000e+02  8.786400e-01      1
  CG331   CG311   CG321   CG2O2     9  1.800000e+02  1.464400e+00      3
  CG331   CG311   CG321  CG2R61     9  0.000000e+00  1.673600e-01      3
  CG331   CG311   CG321   CG311     9  0.000000e+00  8.368000e-01      3
  CG331   CG311   CG321   CG321     9  0.000000e+00  8.368000e-01      3
  CG331   CG311   CG321   CG331     9  0.000000e+00  8.368000e-01      3
  CG331   CG311   CG321    HGA2     9  0.000000e+00  8.368000e-01      3
  CG331   CG311   CG321   OG301     9  0.000000e+00  8.368000e-01      3
  CG331   CG311   CG321   OG311     9  1.800000e+02  8.368000e-01      3
  CG331   CG311   CG331    HGA3     9  0.000000e+00  8.158800e-01      3
  CG331   CG311   OG301   CG321     9  0.000000e+00  1.673600e+00      1
  CG331   CG311   OG301   CG321     9  0.000000e+00  2.050160e+00      3
  CG331   CG311   OG301   CG331     9  0.000000e+00  1.673600e+00      1
  CG331   CG311   OG301   CG331     9  0.000000e+00  2.050160e+00      3
  CG331   CG311   OG301   OG311     9  0.000000e+00  2.092000e+00      3
  CG331   CG311   OG301   OG311     9  1.800000e+02  4.602400e+00      1
  CG331   CG311   OG311    HGP1     9  0.000000e+00  7.531200e-01      2
  CG331   CG311   OG311    HGP1     9  0.000000e+00  1.924640e+00      3
  CG331   CG311   OG311    HGP1     9  0.000000e+00  5.564720e+00      1
  CG331   CG321   CG321   CG331     9  0.000000e+00  1.597870e-01      2
  CG331   CG321   CG321   CG331     9  1.800000e+02  1.329675e-01      6
  CG331   CG321   CG321    HGA2     9  0.000000e+00  7.531200e-01      3
  CG331   CG321   CG321   OG301     9  0.000000e+00  1.631760e+00      2
  CG331   CG321   CG321   OG301     9  1.800000e+02  6.694400e-01      1
  CG331   CG321   CG321   OG311     9  0.000000e+00  8.158800e-01      3
  CG331   CG321   CG331    HGA3     9  0.000000e+00  6.694400e-01      3
  CG331   CG321   NG301  CG2R61     9  0.000000e+00  4.184000e-02      3
  CG331   CG321   NG301  CG2R61     9  0.000000e+00  1.255200e-01      2
  CG331   CG321   NG301  CG2R61     9  1.800000e+02  1.840960e+00      1
  CG331   CG321   OG301  CG2R61     9  0.000000e+00  8.368000e-02      3
  CG331   CG321   OG301  CG2R61     9  0.000000e+00  1.004160e+00      1
  CG331   CG321   OG301  CG2R61     9  0.000000e+00  1.213360e+00      2
  CG331   CG321   OG301   CG311     9  0.000000e+00  1.673600e+00      1
  CG331   CG321   OG301   CG311     9  0.000000e+00  2.050160e+00      3
  CG331   CG321   OG301   CG321     9  0.000000e+00  1.673600e+00      1
  CG331   CG321   OG301   CG321     9  0.000000e+00  2.050160e+00      3
  CG331   CG321   OG301   CG331     9  0.000000e+00  1.673600e+00      1
  CG331   CG321   OG301   CG331     9  0.000000e+00  2.050160e+00      3
  CG331   CG321   OG311    HGP1     9  0.000000e+00  5.857600e-01      2
  CG331   CG321   OG311    HGP1     9  0.000000e+00  1.004160e+00      3
  CG331   CG321   OG311    HGP1     9  0.000000e+00  4.727920e+00      1
  CG331  CG3RC1  CG3RC1    HGA1     9  0.000000e+00  2.092000e-01      3
  CG331   OG301   OG311    HGP1     9  0.000000e+00  5.020800e-01      3
  CG331   OG301   OG311    HGP1     9  0.000000e+00  1.673600e+00      1
  CG331   OG301   OG311    HGP1     9  0.000000e+00  4.811600e+00      2
 CG3RC1  CG2RC0  CG2RC0  OG3C51     9  1.800000e+02  2.510400e+01      2
 CG3RC1   CG311   CG311    HGA1     9  0.000000e+00  6.276000e-01      3
 CG3RC1   CG311   CG311   NG301     9  0.000000e+00  1.631760e+00      2
 CG3RC1   CG311   CG311   NG301     9  1.800000e+02  6.694400e-01      1
 CG3RC1   CG311   CG311   OG311     9  0.000000e+00  2.510400e+00      1
 CG3RC1   CG311   CG311   OG311     9  0.000000e+00  2.928800e+00      3
 CG3RC1   CG311   CG321   CG2D1     9  0.000000e+00  8.368000e-01      3
 CG3RC1   CG311   CG321   CG311     9  0.000000e+00  6.276000e-01      3
 CG3RC1   CG311   CG321   CG321     9  0.000000e+00  6.276000e-01      3
 CG3RC1   CG311   CG321    HGA2     9  0.000000e+00  6.276000e-01      3
 CG3RC1   CG311   OG301   CG311     9  0.000000e+00  1.673600e+00      1
 CG3RC1   CG311   OG301   CG311     9  0.000000e+00  2.050160e+00      3
 CG3RC1   CG311   OG311    HGP1     9  0.000000e+00  2.092000e+00      3
 CG3RC1   CG311   OG311    HGP1     9  0.000000e+00  6.276000e+00      1
 CG3RC1   CG311   OG311    HGP1     9  1.800000e+02  1.255200e+00      2
 CG3RC1   CG321   CG321    HGA2     9  0.000000e+00  8.158800e-01      3
 CG3RC1   CG321   CG321   NG301     9  0.000000e+00  1.631760e+00      2
 CG3RC1   CG321   CG321   NG301     9  1.800000e+02  6.694400e-01      1
 CG3RC1  CG3RC1  OG3C51  CG2RC0     9  0.000000e+00  0.000000e+00      3
   HGA1   CG311   CG311    HGA1     9  0.000000e+00  8.158800e-01      3
   HGA1   CG311   CG321   CG2D1     9  0.000000e+00  8.368000e-01      3
   HGA1   CG311   CG321   CG2O2     9  0.000000e+00  8.368000e-01      3
   HGA1   CG311   CG321  CG2R61     9  0.000000e+00  1.673600e-01      3
   HGA1   CG311   CG321   CG311     9  0.000000e+00  8.158800e-01      3
   HGA1   CG311   CG321   CG321     9  0.000000e+00  8.158800e-01      3
   HGA1   CG311   CG321   CG331     9  0.000000e+00  8.368000e-01      3
   HGA1   CG311   CG321    HGA2     9  0.000000e+00  8.158800e-01      3
   HGA1   CG311   CG321   NG301     9  0.000000e+00  7.531200e-01      3
   HGA1   CG311   CG321   OG301     9  0.000000e+00  8.158800e-01      3
   HGA1   CG311   CG321   OG311     9  0.000000e+00  8.158800e-01      3
   HGA1   CG311   CG331    HGA3     9  0.000000e+00  8.158800e-01      3
   HGA1   CG311  CG3RC1  CG2RC0     9  0.000000e+00  0.000000e+00      3
   HGA1   CG311  CG3RC1   CG321     9  0.000000e+00  2.092000e-01      3
   HGA1   CG311  CG3RC1   CG331     9  0.000000e+00  2.092000e-01      3
   HGA1   CG311  CG3RC1  CG3RC1     9  0.000000e+00  6.276000e-01      3
   HGA1   CG311  CG3RC1    HGA1     9  0.000000e+00  6.276000e-01      3
   HGA1   CG311  CG3RC1  OG3C51     9  0.000000e+00  6.694400e-01      3
   HGA1   CG311   NG301   CG321     9  0.000000e+00  4.184000e-01      3
   HGA1   CG311   NG301   CG331     9  0.000000e+00  4.184000e-01      3
   HGA1   CG311   OG301   CG311     9  0.000000e+00  1.188256e+00      3
   HGA1   CG311   OG301   CG321     9  0.000000e+00  1.188256e+00      3
   HGA1   CG311   OG301   CG331     9  0.000000e+00  1.188256e+00      3
   HGA1   CG311   OG301   OG311     9  0.000000e+00  8.368000e-01      3
   HGA1   CG311   OG311    HGP1     9  0.000000e+00  0.000000e+00      3
   HGA1   CG311  OG3C61   CG311     9  0.000000e+00  8.158800e-01      3
   HGA1   CG311  OG3C61   CG321     9  0.000000e+00  8.158800e-01      3
   HGA1  CG3RC1  CG3RC1    HGA1     9  0.000000e+00  6.276000e-01      3
   HGA1  CG3RC1  OG3C51  CG2RC0     9  0.000000e+00  1.255200e+00      3
   HGA2   CG321   CG321    HGA2     9  0.000000e+00  9.204800e-01      3
   HGA2   CG321   CG331    HGA3     9  0.000000e+00  6.694400e-01      3
   HGA2   CG321  CG3RC1  CG2RC0     9  0.000000e+00  0.000000e+00      3
   HGA2   CG321  CG3RC1   CG311     9  0.000000e+00  7.949600e-01      3
   HGA2   CG321  CG3RC1   CG331     9  0.000000e+00  7.949600e-01      3
   HGA2   CG321  CG3RC1  CG3RC1     9  0.000000e+00  6.276000e-01      3
   HGA2   CG321  CG3RC1    HGA1     9  0.000000e+00  6.276000e-01      3
   HGA2   CG321   NG301  CG2R61     9  1.800000e+02  0.000000e+00      3
   HGA2   CG321   NG301   CG311     9  0.000000e+00  4.184000e-01      3
   HGA2   CG321   NG301   CG321     9  0.000000e+00  4.184000e-01      3
   HGA2   CG321   NG301   CG331     9  0.000000e+00  4.184000e-01      3
   HGA2   CG321   OG301  CG2R61     9  0.000000e+00  3.974800e-01      3
   HGA2   CG321   OG301   CG311     9  0.000000e+00  1.188256e+00      3
   HGA2   CG321   OG301   CG321     9  0.000000e+00  1.188256e+00      3
   HGA2   CG321   OG301   CG331     9  0.000000e+00  1.188256e+00      3
   HGA2   CG321   OG311    HGP1     9  0.000000e+00  7.531200e-01      3
   HGA2   CG321  OG3C61   CG311     9  0.000000e+00  8.158800e-01      3
   HGA2   CG321  OG3C61   CG321     9  0.000000e+00  8.158800e-01      3
   HGA3   CG331   CG331    HGA3     9  0.000000e+00  6.485200e-01      3
   HGA3   CG331  CG3RC1   CG311     9  1.800000e+02  6.276000e-01      3
   HGA3   CG331  CG3RC1   CG321     9  0.000000e+00  6.694400e-01      3
   HGA3   CG331  CG3RC1  CG3RC1     9  1.800000e+02  6.276000e-01      3
   HGA3   CG331   NG301  CG2R61     9  0.000000e+00  1.799120e+00      3
   HGA3   CG331   NG301   CG311     9  1.800000e+02  0.000000e+00      3
   HGA3   CG331   NG301   CG321     9  1.800000e+02  0.000000e+00      3
   HGA3   CG331   NG301   CG331     9  1.800000e+02  0.000000e+00      3
   HGA3   CG331   OG301  CG2R61     9  0.000000e+00  3.556400e-01      3
   HGA3   CG331   OG301   CG311     9  0.000000e+00  1.188256e+00      3
   HGA3   CG331   OG301   CG321     9  0.000000e+00  1.188256e+00      3
   HGA3   CG331   OG301   CG331     9  0.000000e+00  1.188256e+00      3
   HGA3   CG331   OG301   OG311     9  0.000000e+00  8.368000e-01      3
   HGA3   CG331   OG311    HGP1     9  0.000000e+00  7.531200e-01      3
   HGA4   CG2D1   CG2D1    HGA4     9  1.800000e+02  4.184000e+00      2
   HGA4   CG2D1   CG311   CG2D1     9  0.000000e+00  0.000000e+00      3
   HGA4   CG2D1   CG311   CG311     9  0.000000e+00  5.020800e-01      3
   HGA4   CG2D1   CG311   CG321     9  0.000000e+00  5.020800e-01      3
   HGA4   CG2D1   CG311  CG3RC1     9  0.000000e+00  5.020800e-01      3
   HGA4   CG2D1   CG311    HGA1     9  0.000000e+00  0.000000e+00      3
   HGA4   CG2D1   CG311   OG301     9  0.000000e+00  8.368000e-01      3
   HGA4   CG2D1   CG321   CG2D1     9  0.000000e+00  0.000000e+00      3
   HGA4   CG2D1   CG321   CG311     9  0.000000e+00  0.000000e+00      3
   HGA4   CG2D1   CG321   CG321     9  0.000000e+00  5.020800e-01      3
   HGA4   CG2D1   CG321   CG331     9  0.000000e+00  5.020800e-01      3
   HGA4   CG2D1   CG321    HGA2     9  0.000000e+00  0.000000e+00      3
   HGA4   CG2D1   CG321   OG301     9  0.000000e+00  8.368000e-01      3
   HGA4   CG2D1   CG321   OG311     9  0.000000e+00  8.368000e-01      3
   HGA4   CG2D1   CG331    HGA3     9  0.000000e+00  0.000000e+00      3
  HGR61  CG2R61  CG2R61   HGR61     9  1.800000e+02  1.004160e+01      2
  HGR61  CG2R61  CG2RC0  CG2RC0     9  1.800000e+02  1.255200e+01      2
  HGR61  CG2R61  CG2RC0  OG3C51     9  1.800000e+02  1.004160e+01      2
  NG301  CG2R61  CG2R61   HGR61     9  1.800000e+02  1.004160e+01      2
  NG301   CG311   CG311    HGA1     9  0.000000e+00  2.092000e+00      3
  NG301   CG311   CG321  CG2R61     9  0.000000e+00  1.673600e-01      3
  NG301   CG311   CG321    HGA2     9  0.000000e+00  6.694400e-01      3
  NG301   CG321   CG321    HGA2     9  0.000000e+00  6.694400e-01      3
  NG301   CG321   CG331    HGA3     9  0.000000e+00  7.531200e-01      3
  OG2D1   CG2O2  CG2R61  CG2R61     9  1.800000e+02  4.288600e+00      2
  OG2D1   CG2O2   CG311   CG2O2     9  0.000000e+00  0.000000e+00      1
  OG2D1   CG2O2   CG311  CG2R61     9  0.000000e+00  2.928800e+00      1
  OG2D1   CG2O2   CG311  CG2R61     9  1.800000e+02  1.255200e+00      3
  OG2D1   CG2O2   CG311   CG311     9  1.800000e+02  2.092000e-01      6
  OG2D1   CG2O2   CG311   CG321     9  1.800000e+02  2.092000e-01      6
  OG2D1   CG2O2   CG311   CG331     9  1.800000e+02  2.092000e-01      6
  OG2D1   CG2O2   CG311    HGA1     9  0.000000e+00  0.000000e+00      3
  OG2D1   CG2O2   CG311   OG301     9  0.000000e+00  0.000000e+00      2
  OG2D1   CG2O2   CG311   OG311     9  1.800000e+02  2.301200e+00      2
  OG2D1   CG2O2   CG311  OG3C61     9  0.000000e+00  4.184000e-01      1
  OG2D1   CG2O2   CG311  OG3C61     9  1.800000e+02  4.100320e+00      2
  OG2D1   CG2O2   CG321  CG2R61     9  0.000000e+00  3.556400e+00      1
  OG2D1   CG2O2   CG321   CG311     9  1.800000e+02  0.000000e+00      6
  OG2D1   CG2O2   CG321   CG321     9  1.800000e+02  2.092000e-01      6
  OG2D1   CG2O2   CG321   CG331     9  1.800000e+02  2.092000e-01      6
  OG2D1   CG2O2   CG321    HGA2     9  1.800000e+02  0.000000e+00      6
  OG2D1   CG2O2   CG321   OG301     9  0.000000e+00  4.184000e-01      1
  OG2D1   CG2O2   CG321   OG301     9  1.800000e+02  4.100320e+00      2
  OG2D1   CG2O2   CG331    HGA3     9  1.800000e+02  0.000000e+00      6
  OG2D1   CG2O2   OG311    HGP1     9  1.800000e+02  8.577200e+00      2
  OG301  CG2R61  CG2R61   HGR61     9  1.800000e+02  1.004160e+01      2
  OG301  CG2R61  CG2R61   OG301     9  1.800000e+02  0.000000e+00      2
  OG301  CG2R61  CG2R61   OG311     9  1.800000e+02  0.000000e+00      2
  OG301   CG311   CG311    HGA1     9  0.000000e+00  8.158800e-01      3
  OG301   CG311   CG311   OG311     9  0.000000e+00  8.368000e-01      3
  OG301   CG311   CG321   CG311     9  0.000000e+00  1.631760e+00      2
  OG301   CG311   CG321   CG311     9  1.800000e+02  6.694400e-01      1
  OG301   CG311   CG321   CG321     9  0.000000e+00  1.631760e+00      2
  OG301   CG311   CG321   CG321     9  1.800000e+02  6.694400e-01      1
  OG301   CG311   CG321   CG331     9  0.000000e+00  1.631760e+00      2
  OG301   CG311   CG321   CG331     9  1.800000e+02  6.694400e-01      1
  OG301   CG311   CG321    HGA2     9  0.000000e+00  8.158800e-01      3
  OG301   CG311   CG321   NG301     9  0.000000e+00  8.368000e-01      3
  OG301   CG311   CG321   OG301     9  0.000000e+00  8.368000e-01      3
  OG301   CG311   CG321   OG311     9  0.000000e+00  8.368000e-01      3
  OG301   CG311   CG331    HGA3     9  0.000000e+00  6.694400e-01      3
  OG301   CG311  CG3RC1  CG3RC1     9  0.000000e+00  1.882800e+00      2
  OG301   CG311  CG3RC1  CG3RC1     9  0.000000e+00  2.510400e+00      1
  OG301   CG311  CG3RC1  CG3RC1     9  0.000000e+00  2.928800e+00      3
  OG301   CG311  CG3RC1    HGA1     9  0.000000e+00  8.158800e-01      3
  OG301   CG311  CG3RC1  OG3C51     9  1.800000e+02  1.422560e+01      1
  OG301   CG311   OG311    HGP1     9  0.000000e+00  4.476880e+00      3
  OG301   CG311   OG311    HGP1     9  0.000000e+00  4.895280e+00      2
  OG301   CG311   OG311    HGP1     9  0.000000e+00  6.485200e+00      1
  OG301   CG311  OG3C61   CG311     9  0.000000e+00  8.368000e-01      3
  OG301   CG311  OG3C61   CG321     9  0.000000e+00  8.368000e-01      3
  OG301   CG321   CG321    HGA2     9  0.000000e+00  7.949600e-01      3
  OG301   CG321   CG321   OG301     9  0.000000e+00  5.188160e+00      2
  OG301   CG321   CG321   OG301     9  1.800000e+02  1.046000e+00      1
  OG301   CG321   CG321   OG311     9  0.000000e+00  5.188160e+00      2
  OG301   CG321   CG321   OG311     9  1.800000e+02  1.046000e+00      1
  OG301   CG321   CG331    HGA3     9  0.000000e+00  6.694400e-01      3
  OG311   CG2O2  CG2R61  CG2R61     9  1.800000e+02  4.288600e+00      2
  OG311   CG2O2   CG311   CG311     9  1.800000e+02  2.092000e-01      6
  OG311   CG2O2   CG311   CG321     9  1.800000e+02  2.092000e-01      6
  OG311   CG2O2   CG311   CG331     9  1.800000e+02  2.092000e-01      6
  OG311   CG2O2   CG311    HGA1     9  1.800000e+02  2.092000e-01      6
  OG311   CG2O2   CG311   OG301     9  1.800000e+02  0.000000e+00      6
  OG311   CG2O2   CG311   OG311     9  1.800000e+02  1.924640e+00      2
  OG311   CG2O2   CG311  OG3C61     9  1.800000e+02  7.112800e-01      1
  OG311   CG2O2   CG311  OG3C61     9  1.800000e+02  1.924640e+00      2
  OG311   CG2O2   CG321  CG2R61     9  1.800000e+02  5.020800e-01      3
  OG311   CG2O2   CG321  CG2R61     9  1.800000e+02  3.891120e+00      2
  OG311   CG2O2   CG321   CG311     9  1.800000e+02  0.000000e+00      6
  OG311   CG2O2   CG321   CG321     9  1.800000e+02  0.000000e+00      6
  OG311   CG2O2   CG321   CG331     9  1.800000e+02  0.000000e+00      6
  OG311   CG2O2   CG321    HGA2     9  1.800000e+02  0.000000e+00      6
  OG311   CG2O2   CG321   OG301     9  1.800000e+02  7.112800e-01      1
  OG311   CG2O2   CG321   OG301     9  1.800000e+02  1.924640e+00      2
  OG311   CG2O2   CG331    HGA3     9  1.800000e+02  0.000000e+00      6
  OG311  CG2R61  CG2R61   HGR61     9  1.800000e+02  1.004160e+01      2
  OG311  CG2R61  CG2R61   OG311     9  1.800000e+02  1.414527e+01      2
  OG311  CG2R61  CG2RC0  CG2RC0     9  1.800000e+02  1.297040e+01      2
  OG311  CG2R61  CG2RC0  OG3C51     9  1.800000e+02  1.414527e+01      2
  OG311   CG311   CG311    HGA1     9  0.000000e+00  8.158800e-01      3
  OG311   CG311   CG311   OG311     9  0.000000e+00  8.368000e-01      3
  OG311   CG311   CG311  OG3C61     9  0.000000e+00  8.368000e-01      3
  OG311   CG311   CG321   CG2D1     9  0.000000e+00  8.368000e-01      3
  OG311   CG311   CG321   CG311     9  0.000000e+00  1.673600e+00      5
  OG311   CG311   CG321   CG311     9  0.000000e+00  3.347200e+00      6
  OG311   CG311   CG321   CG311     9  1.800000e+02  8.368000e+00      3
  OG311   CG311   CG321   CG321     9  0.000000e+00  1.673600e+00      3
  OG311   CG311   CG321   CG321     9  0.000000e+00  1.673600e+00      5
  OG311   CG311   CG321   CG321     9  0.000000e+00  2.928800e+00      2
  OG311   CG311   CG321   CG321     9  1.800000e+02  2.092000e+00      1
  OG311   CG311   CG321   CG331     9  0.000000e+00  5.857600e-01      3
  OG311   CG311   CG321    HGA2     9  1.800000e+02  8.158800e-01      3
  OG311   CG311   CG321   NG301     9  0.000000e+00  8.368000e-01      3
  OG311   CG311   CG321   OG301     9  0.000000e+00  8.368000e-01      3
  OG311   CG311   CG321   OG311     9  0.000000e+00  8.368000e-01      3
  OG311   CG311   CG331    HGA3     9  0.000000e+00  8.368000e-01      3
  OG311   CG311  CG3RC1   CG331     9  0.000000e+00  6.610720e-01      3
  OG311   CG311  CG3RC1  CG3RC1     9  0.000000e+00  1.882800e+00      2
  OG311   CG311   OG301   CG321     9  0.000000e+00  2.092000e-01      3
  OG311   CG311   OG301   CG321     9  0.000000e+00  3.723760e+00      2
  OG311   CG311   OG301   CG321     9  1.800000e+02  1.715440e+00      1
  OG311   CG311   OG311    HGP1     9  0.000000e+00  1.163570e+00      3
  OG311   CG311   OG311    HGP1     9  0.000000e+00  4.413702e+00      2
  OG311   CG311   OG311    HGP1     9  0.000000e+00  7.673038e+00      1
  OG311   CG321   CG321    HGA2     9  0.000000e+00  8.158800e-01      3
  OG311   CG321   CG321   OG311     9  0.000000e+00  8.368000e-01      3
  OG311   CG321   CG331    HGA3     9  0.000000e+00  6.694400e-01      3
 OG3C51  CG2RC0  CG2RC0  OG3C51     9  1.800000e+02  3.221680e+01      2
 OG3C51  CG3RC1  CG3RC1    HGA1     9  0.000000e+00  6.276000e-01      3
 OG3C61   CG311   CG311    HGA1     9  0.000000e+00  8.158800e-01      3
 OG3C61   CG311   CG321   CG321     9  0.000000e+00  2.510400e+00      3
 OG3C61   CG311   CG321   CG321     9  1.800000e+02  3.347200e-01      4
 OG3C61   CG311   CG321   CG321     9  1.800000e+02  7.949600e-01      1
 OG3C61   CG311   CG321   CG321     9  1.800000e+02  4.184000e+00      2
 OG3C61   CG311   CG321    HGA2     9  0.000000e+00  8.158800e-01      3
 OG3C61   CG311   OG301   CG311     9  0.000000e+00  1.464400e+00      3
 OG3C61   CG311   OG301   CG311     9  0.000000e+00  3.389040e+00      2
 OG3C61   CG311   OG301   CG311     9  0.000000e+00  3.430880e+00      1
 OG3C61   CG321   CG321    HGA2     9  0.000000e+00  8.158800e-01      3
 OG3C61   CG321   CG321  OG3C61     9  0.000000e+00  8.158800e-01      3
 OG3C61   CG321  OG3C61   CG321     9  0.000000e+00  4.184000e+00      3
      X  CG3RC1  CG3RC1       X     9  1.800000e+02  1.882800e+00      1
      X  CG3RC1  CG3RC1       X     9  1.800000e+02  3.556400e+01      2

[ dihedraltypes ]
; i	j	k	l	func	q0	cq
  CG2O2  CG2R61   OG2D1   OG311     2  0.000000e+00  4.435040e+02
  CG2O2   CG311   OG2D1   OG311     2  0.000000e+00  5.439200e+02
  CG2O2   CG321   OG2D1   OG311     2  0.000000e+00  5.439200e+02
  CG2O2   CG331   OG2D1   OG311     2  0.000000e+00  5.439200e+02
 CG2R61  CG2R61  CG2R61   OG311     2  0.000000e+00  1.255200e+02
