Generated by CHARMM-GUI FF-Converter
20238
    1OSM      N    1   2.729   2.601   6.147
    1OSM    C15    2   2.741   2.670   6.016
    1OSM   H15A    3   2.820   2.625   5.956
    1OSM   H15B    4   2.771   2.773   6.032
    1OSM   H15C    5   2.648   2.668   5.960
    1OSM    C14    6   2.611   2.661   6.217
    1OSM   H14A    7   2.636   2.765   6.240
    1OSM   H14B    8   2.587   2.611   6.309
    1OSM   H14C    9   2.523   2.657   6.153
    1OSM    C13   10   2.709   2.456   6.114
    1OSM   H13A   11   2.789   2.420   6.050
    1OSM   H13B   12   2.618   2.447   6.055
    1OSM   H13C   13   2.701   2.398   6.204
    1OSM    C12   14   2.857   2.618   6.227
    1OSM   H12A   15   2.936   2.568   6.172
    1OSM   H12B   16   2.847   2.569   6.323
    1OSM    C11   17   2.909   2.762   6.251
    1OSM   H11A   18   2.992   2.759   6.326
    1OSM   H11B   19   2.827   2.822   6.296
    1OSM      P   20   3.081   2.770   6.054
    1OSM    O13   21   3.207   2.806   6.124
    1OSM    O14   22   3.055   2.625   6.034
    1OSM    O11   23   3.074   2.844   5.912
    1OSM    O12   24   2.953   2.827   6.131
    1OSM    C1S   25   2.952   2.912   5.879
    1OSM    H1S   26   2.947   3.011   5.931
    1OSM    H1T   27   2.861   2.858   5.911
    1OSM     NF   28   2.932   2.798   5.662
    1OSM    HNF   29   3.021   2.757   5.643
    1OSM    C2S   30   2.935   2.929   5.726
    1OSM    H2S   31   2.838   2.982   5.707
    1OSM    C3S   32   3.048   3.020   5.677
    1OSM    H3S   33   3.147   2.977   5.702
    1OSM     O3   34   3.041   3.148   5.740
    1OSM    HO3   35   3.014   3.129   5.831
    1OSM    C4S   36   3.042   3.037   5.527
    1OSM    H4S   37   3.140   3.031   5.481
    1OSM    C5S   38   2.934   3.065   5.451
    1OSM    H5S   39   2.836   3.078   5.499
    1OSM    C6S   40   2.933   3.080   5.300
    1OSM    H6S   41   2.991   3.171   5.271
    1OSM    H6T   42   2.828   3.099   5.268
    1OSM    C7S   43   2.982   2.961   5.214
    1OSM    H7S   44   2.960   2.987   5.108
    1OSM    H7T   45   2.922   2.870   5.238
    1OSM    C8S   46   3.132   2.928   5.225
    1OSM    H8S   47   3.157   2.900   5.329
    1OSM    H8T   48   3.190   3.018   5.197
    1OSM    C9S   49   3.179   2.811   5.137
    1OSM    H9S   50   3.129   2.718   5.168
    1OSM    H9T   51   3.288   2.796   5.154
    1OSM   C10S   52   3.158   2.834   4.987
    1OSM   H10S   53   3.215   2.924   4.955
    1OSM   H10T   54   3.051   2.852   4.966
    1OSM   C11S   55   3.204   2.715   4.903
    1OSM   H11S   56   3.133   2.630   4.918
    1OSM   H11T   57   3.304   2.681   4.937
    1OSM   C12S   58   3.208   2.752   4.755
    1OSM   H12S   59   3.281   2.834   4.738
    1OSM   H12T   60   3.107   2.790   4.728
    1OSM   C13S   61   3.242   2.633   4.664
    1OSM   H13S   62   3.191   2.543   4.704
    1OSM   H13T   63   3.351   2.613   4.664
    1OSM   C14S   64   3.190   2.657   4.521
    1OSM   H14S   65   3.258   2.726   4.466
    1OSM   H14T   66   3.091   2.707   4.531
    1OSM   C15S   67   3.170   2.525   4.446
    1OSM   H15S   68   3.104   2.463   4.510
    1OSM   H15T   69   3.267   2.473   4.435
    1OSM   C16S   70   3.101   2.537   4.308
    1OSM   H16S   71   3.060   2.438   4.280
    1OSM   H16T   72   3.175   2.566   4.231
    1OSM   C17S   73   2.988   2.640   4.308
    1OSM   H17S   74   3.036   2.741   4.313
    1OSM   H17T   75   2.925   2.627   4.399
    1OSM   C18S   76   2.898   2.634   4.185
    1OSM   H18S   77   2.837   2.541   4.188
    1OSM   H18T   78   2.958   2.636   4.092
    1OSM   H18U   79   2.828   2.720   4.182
    1OSM    C1F   80   2.821   2.724   5.671
    1OSM     OF   81   2.720   2.775   5.717
    1OSM    C2F   82   2.825   2.578   5.637
    1OSM    H2F   83   2.769   2.523   5.716
    1OSM    H2G   84   2.930   2.541   5.638
    1OSM    C3F   85   2.758   2.545   5.501
    1OSM    H3F   86   2.655   2.588   5.496
    1OSM    H3G   87   2.747   2.434   5.496
    1OSM    C4F   88   2.841   2.592   5.381
    1OSM    H4F   89   2.948   2.574   5.406
    1OSM    H4G   90   2.829   2.701   5.365
    1OSM    C5F   91   2.811   2.516   5.250
    1OSM    H5F   92   2.714   2.548   5.207
    1OSM    H5G   93   2.804   2.407   5.273
    1OSM    C6F   94   2.924   2.538   5.149
    1OSM    H6F   95   3.020   2.523   5.202
    1OSM    H6G   96   2.923   2.644   5.115
    1OSM    C7F   97   2.924   2.445   5.027
    1OSM    H7F   98   2.900   2.341   5.055
    1OSM    H7G   99   3.029   2.446   4.988
    1OSM    C8F  100   2.831   2.495   4.915
    1OSM    H8F  101   2.830   2.606   4.919
    1OSM    H8G  102   2.727   2.461   4.936
    1OSM    C9F  103   2.879   2.450   4.779
    1OSM    H9F  104   2.973   2.392   4.775
    1OSM   C10F  105   2.811   2.475   4.667
    1OSM   H10F  106   2.850   2.440   4.570
    1OSM   C11F  107   2.680   2.549   4.665
    1OSM   H11F  108   2.693   2.652   4.705
    1OSM   H11G  109   2.607   2.497   4.732
    1OSM   C12F  110   2.617   2.555   4.526
    1OSM   H12F  111   2.506   2.547   4.535
    1OSM   H12G  112   2.648   2.469   4.463
    1OSM   C13F  113   2.652   2.685   4.453
    1OSM   H13F  114   2.680   2.659   4.348
    1OSM   H13G  115   2.741   2.732   4.501
    1OSM   C14F  116   2.536   2.784   4.452
    1OSM   H14F  117   2.494   2.792   4.555
    1OSM   H14G  118   2.455   2.747   4.385
    1OSM   C15F  119   2.577   2.925   4.410
    1OSM   H15F  120   2.649   2.965   4.485
    1OSM   H15G  121   2.486   2.988   4.415
    1OSM   C16F  122   2.639   2.937   4.270
    1OSM   H16F  123   2.562   2.974   4.199
    1OSM   H16G  124   2.670   2.838   4.231
    1OSM   C17F  125   2.759   3.033   4.265
    1OSM   H17F  126   2.732   3.128   4.317
    1OSM   H17G  127   2.775   3.058   4.159
    1OSM   C18F  128   2.890   2.979   4.323
    1OSM   H18F  129   2.873   2.928   4.420
    1OSM   H18G  130   2.964   3.059   4.337
    1OSM   H18H  131   2.933   2.905   4.252
    2OSM      N  132   1.737   1.864   6.122
    2OSM    C15  133   1.801   1.994   6.158
    2OSM   H15A  134   1.906   1.995   6.131
    2OSM   H15B  135   1.788   2.016   6.263
    2OSM   H15C  136   1.749   2.074   6.104
    2OSM    C14  137   1.763   1.841   5.976
    2OSM   H14A  138   1.721   1.921   5.915
    2OSM   H14B  139   1.723   1.746   5.944
    2OSM   H14C  140   1.869   1.840   5.953
    2OSM    C13  141   1.800   1.755   6.203
    2OSM   H13A  142   1.789   1.774   6.310
    2OSM   H13B  143   1.906   1.746   6.181
    2OSM   H13C  144   1.752   1.659   6.187
    2OSM    C12  145   1.589   1.873   6.155
    2OSM   H12A  146   1.577   1.902   6.259
    2OSM   H12B  147   1.540   1.776   6.150
    2OSM    C11  148   1.505   1.973   6.073
    2OSM   H11A  149   1.397   1.948   6.086
    2OSM   H11B  150   1.529   1.965   5.965
    2OSM      P  151   1.429   2.222   6.094
    2OSM    O13  152   1.293   2.183   6.135
    2OSM    O14  153   1.487   2.342   6.158
    2OSM    O11  154   1.428   2.237   5.936
    2OSM    O12  155   1.532   2.104   6.120
    2OSM    C1S  156   1.543   2.229   5.853
    2OSM    H1S  157   1.630   2.186   5.907
    2OSM    H1T  158   1.570   2.332   5.822
    2OSM     NF  159   1.618   2.176   5.624
    2OSM    HNF  160   1.587   2.191   5.531
    2OSM    C2S  161   1.520   2.143   5.723
    2OSM    H2S  162   1.532   2.036   5.750
    2OSM    C3S  163   1.378   2.161   5.664
    2OSM    H3S  164   1.359   2.269   5.647
    2OSM     O3  165   1.280   2.114   5.754
    2OSM    HO3  166   1.323   2.131   5.839
    2OSM    C4S  167   1.360   2.087   5.532
    2OSM    H4S  168   1.319   1.986   5.540
    2OSM    C5S  169   1.384   2.142   5.411
    2OSM    H5S  170   1.426   2.244   5.408
    2OSM    C6S  171   1.369   2.083   5.273
    2OSM    H6S  172   1.419   2.150   5.200
    2OSM    H6T  173   1.260   2.087   5.247
    2OSM    C7S  174   1.417   1.940   5.240
    2OSM    H7S  175   1.363   1.866   5.303
    2OSM    H7T  176   1.526   1.932   5.260
    2OSM    C8S  177   1.389   1.911   5.091
    2OSM    H8S  178   1.441   1.986   5.027
    2OSM    H8T  179   1.279   1.922   5.074
    2OSM    C9S  180   1.429   1.769   5.046
    2OSM    H9S  181   1.382   1.748   4.947
    2OSM    H9T  182   1.384   1.698   5.119
    2OSM   C10S  183   1.580   1.744   5.035
    2OSM   H10S  184   1.597   1.635   5.024
    2OSM   H10T  185   1.629   1.775   5.130
    2OSM   C11S  186   1.650   1.813   4.917
    2OSM   H11S  187   1.759   1.793   4.926
    2OSM   H11T  188   1.637   1.923   4.923
    2OSM   C12S  189   1.603   1.762   4.779
    2OSM   H12S  190   1.503   1.804   4.755
    2OSM   H12T  191   1.592   1.652   4.785
    2OSM   C13S  192   1.702   1.792   4.665
    2OSM   H13S  193   1.665   1.744   4.572
    2OSM   H13T  194   1.800   1.746   4.689
    2OSM   C14S  195   1.723   1.942   4.638
    2OSM   H14S  196   1.801   1.955   4.560
    2OSM   H14T  197   1.764   1.989   4.731
    2OSM   C15S  198   1.596   2.018   4.596
    2OSM   H15S  199   1.621   2.127   4.587
    2OSM   H15T  200   1.519   2.009   4.675
    2OSM   C16S  201   1.537   1.972   4.462
    2OSM   H16S  202   1.442   2.029   4.444
    2OSM   H16T  203   1.510   1.864   4.467
    2OSM   C17S  204   1.630   1.997   4.343
    2OSM   H17S  205   1.724   1.937   4.356
    2OSM   H17T  206   1.660   2.104   4.342
    2OSM   C18S  207   1.568   1.961   4.208
    2OSM   H18S  208   1.639   1.983   4.126
    2OSM   H18T  209   1.475   2.020   4.191
    2OSM   H18U  210   1.542   1.853   4.204
    2OSM    C1F  211   1.746   2.192   5.651
    2OSM     OF  212   1.800   2.130   5.741
    2OSM    C2F  213   1.810   2.300   5.571
    2OSM    H2F  214   1.889   2.349   5.633
    2OSM    H2G  215   1.734   2.377   5.546
    2OSM    C3F  216   1.872   2.247   5.441
    2OSM    H3F  217   1.968   2.197   5.465
    2OSM    H3G  218   1.893   2.335   5.376
    2OSM    C4F  219   1.792   2.145   5.358
    2OSM    H4F  220   1.686   2.177   5.346
    2OSM    H4G  221   1.793   2.046   5.410
    2OSM    C5F  222   1.855   2.130   5.220
    2OSM    H5F  223   1.880   2.023   5.201
    2OSM    H5G  224   1.951   2.188   5.218
    2OSM    C6F  225   1.765   2.183   5.108
    2OSM    H6F  226   1.715   2.277   5.141
    2OSM    H6G  227   1.685   2.108   5.087
    2OSM    C7F  228   1.847   2.211   4.982
    2OSM    H7F  229   1.904   2.118   4.960
    2OSM    H7G  230   1.921   2.292   5.002
    2OSM    C8F  231   1.761   2.245   4.859
    2OSM    H8F  232   1.681   2.169   4.852
    2OSM    H8G  233   1.830   2.226   4.773
    2OSM    C9F  234   1.701   2.384   4.855
    2OSM    H9F  235   1.647   2.414   4.946
    2OSM   C10F  236   1.711   2.471   4.752
    2OSM   H10F  237   1.663   2.570   4.762
    2OSM   C11F  238   1.783   2.446   4.622
    2OSM   H11F  239   1.810   2.338   4.613
    2OSM   H11G  240   1.879   2.502   4.622
    2OSM   C12F  241   1.710   2.478   4.491
    2OSM   H12F  242   1.691   2.588   4.482
    2OSM   H12G  243   1.612   2.425   4.489
    2OSM   C13F  244   1.796   2.429   4.374
    2OSM   H13F  245   1.843   2.333   4.406
    2OSM   H13G  246   1.881   2.499   4.358
    2OSM   C14F  247   1.725   2.399   4.241
    2OSM   H14F  248   1.696   2.493   4.190
    2OSM   H14G  249   1.633   2.340   4.262
    2OSM   C15F  250   1.819   2.315   4.154
    2OSM   H15F  251   1.858   2.234   4.218
    2OSM   H15G  252   1.906   2.376   4.122
    2OSM   C16F  253   1.758   2.247   4.031
    2OSM   H16F  254   1.736   2.322   3.951
    2OSM   H16G  255   1.661   2.201   4.061
    2OSM   C17F  256   1.855   2.140   3.980
    2OSM   H17F  257   1.889   2.080   4.068
    2OSM   H17G  258   1.945   2.191   3.938
    2OSM   C18F  259   1.799   2.041   3.877
    2OSM   H18F  260   1.870   1.958   3.860
    2OSM   H18G  261   1.780   2.092   3.780
    2OSM   H18H  262   1.703   1.997   3.913
    3OSM      N  263   2.990   1.587   6.145
    3OSM    C15  264   3.035   1.724   6.177
    3OSM   H15A  265   3.068   1.776   6.088
    3OSM   H15B  266   3.117   1.721   6.250
    3OSM   H15C  267   2.953   1.778   6.223
    3OSM    C14  268   2.883   1.597   6.044
    3OSM   H14A  269   2.807   1.668   6.072
    3OSM   H14B  270   2.833   1.500   6.033
    3OSM   H14C  271   2.921   1.623   5.946
    3OSM    C13  272   3.105   1.510   6.084
    3OSM   H13A  273   3.131   1.550   5.986
    3OSM   H13B  274   3.077   1.406   6.071
    3OSM   H13C  275   3.193   1.512   6.146
    3OSM    C12  276   2.932   1.517   6.266
    3OSM   H12A  277   2.837   1.564   6.290
    3OSM   H12B  278   2.997   1.528   6.352
    3OSM    C11  279   2.901   1.366   6.249
    3OSM   H11A  280   2.840   1.336   6.337
    3OSM   H11B  281   2.998   1.311   6.254
    3OSM      P  282   2.788   1.186   6.109
    3OSM    O13  283   2.891   1.101   6.170
    3OSM    O14  284   2.650   1.172   6.163
    3OSM    O11  285   2.781   1.166   5.953
    3OSM    O12  286   2.833   1.338   6.125
    3OSM    C1S  287   2.802   1.268   5.855
    3OSM    H1S  288   2.907   1.307   5.859
    3OSM    H1T  289   2.732   1.353   5.869
    3OSM     NF  290   2.817   1.302   5.608
    3OSM    HNF  291   2.745   1.357   5.567
    3OSM    C2S  292   2.780   1.208   5.713
    3OSM    H2S  293   2.847   1.119   5.706
    3OSM    C3S  294   2.634   1.163   5.692
    3OSM    H3S  295   2.569   1.252   5.677
    3OSM     O3  296   2.577   1.090   5.801
    3OSM    HO3  297   2.649   1.088   5.866
    3OSM    C4S  298   2.634   1.079   5.567
    3OSM    H4S  299   2.678   0.978   5.581
    3OSM    C5S  300   2.588   1.115   5.446
    3OSM    H5S  301   2.541   1.213   5.433
    3OSM    C6S  302   2.592   1.026   5.324
    3OSM    H6S  303   2.501   1.042   5.263
    3OSM    H6T  304   2.593   0.920   5.353
    3OSM    C7S  305   2.715   1.039   5.235
    3OSM    H7S  306   2.714   0.956   5.160
    3OSM    H7T  307   2.808   1.027   5.296
    3OSM    C8S  308   2.716   1.170   5.160
    3OSM    H8S  309   2.813   1.176   5.105
    3OSM    H8T  310   2.714   1.255   5.233
    3OSM    C9S  311   2.599   1.186   5.061
    3OSM    H9S  312   2.505   1.207   5.117
    3OSM    H9T  313   2.583   1.094   5.001
    3OSM   C10S  314   2.632   1.303   4.970
    3OSM   H10S  315   2.680   1.375   5.040
    3OSM   H10T  316   2.543   1.355   4.931
    3OSM   C11S  317   2.727   1.267   4.856
    3OSM   H11S  318   2.777   1.169   4.877
    3OSM   H11T  319   2.807   1.344   4.849
    3OSM   C12S  320   2.657   1.257   4.720
    3OSM   H12S  321   2.598   1.349   4.700
    3OSM   H12T  322   2.586   1.171   4.723
    3OSM   C13S  323   2.755   1.237   4.605
    3OSM   H13S  324   2.835   1.165   4.635
    3OSM   H13T  325   2.805   1.334   4.582
    3OSM   C14S  326   2.684   1.181   4.482
    3OSM   H14S  327   2.585   1.231   4.470
    3OSM   H14T  328   2.665   1.073   4.499
    3OSM   C15S  329   2.764   1.199   4.353
    3OSM   H15S  330   2.732   1.122   4.280
    3OSM   H15T  331   2.872   1.181   4.375
    3OSM   C16S  332   2.746   1.339   4.292
    3OSM   H16S  333   2.783   1.412   4.367
    3OSM   H16T  334   2.638   1.357   4.276
    3OSM   C17S  335   2.819   1.363   4.159
    3OSM   H17S  336   2.880   1.273   4.135
    3OSM   H17T  337   2.891   1.447   4.173
    3OSM   C18S  338   2.728   1.400   4.042
    3OSM   H18S  339   2.700   1.507   4.048
    3OSM   H18T  340   2.635   1.339   4.042
    3OSM   H18U  341   2.781   1.384   3.946
    3OSM    C1F  342   2.943   1.322   5.571
    3OSM     OF  343   3.037   1.279   5.635
    3OSM    C2F  344   2.960   1.400   5.445
    3OSM    H2F  345   2.988   1.504   5.471
    3OSM    H2G  346   2.863   1.402   5.391
    3OSM    C3F  347   3.067   1.341   5.352
    3OSM    H3F  348   3.046   1.233   5.331
    3OSM    H3G  349   3.166   1.347   5.402
    3OSM    C4F  350   3.072   1.418   5.220
    3OSM    H4F  351   3.087   1.526   5.242
    3OSM    H4G  352   2.974   1.407   5.168
    3OSM    C5F  353   3.184   1.370   5.127
    3OSM    H5F  354   3.161   1.267   5.094
    3OSM    H5G  355   3.279   1.369   5.184
    3OSM    C6F  356   3.200   1.461   5.004
    3OSM    H6F  357   3.302   1.445   4.961
    3OSM    H6G  358   3.194   1.567   5.038
    3OSM    C7F  359   3.095   1.436   4.895
    3OSM    H7F  360   2.996   1.419   4.944
    3OSM    H7G  361   3.121   1.343   4.840
    3OSM    C8F  362   3.079   1.554   4.797
    3OSM    H8F  363   3.047   1.644   4.855
    3OSM    H8G  364   2.996   1.529   4.728
    3OSM    C9F  365   3.206   1.584   4.722
    3OSM    H9F  366   3.299   1.548   4.768
    3OSM   C10F  367   3.213   1.651   4.606
    3OSM   H10F  368   3.312   1.665   4.560
    3OSM   C11F  369   3.097   1.707   4.529
    3OSM   H11F  370   3.133   1.786   4.459
    3OSM   H11G  371   3.025   1.758   4.597
    3OSM   C12F  372   3.020   1.602   4.446
    3OSM   H12F  373   2.948   1.655   4.380
    3OSM   H12G  374   2.960   1.538   4.515
    3OSM   C13F  375   3.109   1.512   4.361
    3OSM   H13F  376   3.047   1.433   4.312
    3OSM   H13G  377   3.180   1.459   4.427
    3OSM   C14F  378   3.193   1.587   4.257
    3OSM   H14F  379   3.298   1.597   4.292
    3OSM   H14G  380   3.150   1.689   4.246
    3OSM   C15F  381   3.187   1.523   4.117
    3OSM   H15F  382   3.216   1.603   4.045
    3OSM   H15G  383   3.082   1.493   4.100
    3OSM   C16F  384   3.279   1.404   4.090
    3OSM   H16F  385   3.254   1.322   4.161
    3OSM   H16G  386   3.384   1.435   4.105
    3OSM   C17F  387   3.266   1.351   3.946
    3OSM   H17F  388   3.334   1.265   3.933
    3OSM   H17G  389   3.301   1.430   3.875
    3OSM   C18F  390   3.126   1.303   3.906
    3OSM   H18F  391   3.099   1.214   3.966
    3OSM   H18G  392   3.123   1.277   3.798
    3OSM   H18H  393   3.050   1.379   3.925
    4OSM      N  394   0.624   1.851   6.197
    4OSM    C15  395   0.511   1.761   6.233
    4OSM   H15A  396   0.532   1.704   6.322
    4OSM   H15B  397   0.483   1.696   6.149
    4OSM   H15C  398   0.420   1.820   6.250
    4OSM    C14  399   0.639   1.948   6.310
    4OSM   H14A  400   0.652   1.899   6.405
    4OSM   H14B  401   0.550   2.011   6.311
    4OSM   H14C  402   0.722   2.015   6.289
    4OSM    C13  403   0.748   1.770   6.182
    4OSM   H13A  404   0.765   1.712   6.272
    4OSM   H13B  405   0.835   1.835   6.170
    4OSM   H13C  406   0.743   1.701   6.100
    4OSM    C12  407   0.591   1.934   6.073
    4OSM   H12A  408   0.502   1.993   6.096
    4OSM   H12B  409   0.563   1.870   5.991
    4OSM    C11  410   0.698   2.036   6.024
    4OSM   H11A  411   0.661   2.080   5.929
    4OSM   H11B  412   0.790   1.977   6.003
    4OSM      P  413   0.829   2.253   6.079
    4OSM    O13  414   0.769   2.351   5.985
    4OSM    O14  415   0.894   2.308   6.200
    4OSM    O11  416   0.936   2.162   6.008
    4OSM    O12  417   0.723   2.141   6.119
    4OSM    C1S  418   1.016   2.206   5.900
    4OSM    H1S  419   1.123   2.186   5.925
    4OSM    H1T  420   1.009   2.316   5.883
    4OSM     NF  421   0.845   2.174   5.730
    4OSM    HNF  422   0.774   2.107   5.748
    4OSM    C2S  423   0.977   2.134   5.768
    4OSM    H2S  424   1.046   2.171   5.689
    4OSM    C3S  425   0.984   1.979   5.771
    4OSM    H3S  426   0.899   1.941   5.831
    4OSM     O3  427   1.101   1.920   5.827
    4OSM    HO3  428   1.159   1.996   5.840
    4OSM    C4S  429   0.963   1.931   5.627
    4OSM    H4S  430   1.026   1.983   5.554
    4OSM    C5S  431   0.875   1.840   5.582
    4OSM    H5S  432   0.808   1.791   5.655
    4OSM    C6S  433   0.858   1.797   5.438
    4OSM    H6S  434   0.748   1.789   5.418
    4OSM    H6T  435   0.899   1.694   5.426
    4OSM    C7S  436   0.914   1.881   5.319
    4OSM    H7S  437   1.025   1.884   5.326
    4OSM    H7T  438   0.877   1.986   5.325
    4OSM    C8S  439   0.873   1.819   5.183
    4OSM    H8S  440   0.761   1.818   5.177
    4OSM    H8T  441   0.907   1.713   5.184
    4OSM    C9S  442   0.928   1.886   5.055
    4OSM    H9S  443   1.037   1.905   5.069
    4OSM    H9T  444   0.878   1.984   5.039
    4OSM   C10S  445   0.908   1.796   4.931
    4OSM   H10S  446   0.800   1.786   4.909
    4OSM   H10T  447   0.947   1.695   4.957
    4OSM   C11S  448   0.983   1.843   4.804
    4OSM   H11S  449   1.083   1.882   4.835
    4OSM   H11T  450   0.927   1.927   4.757
    4OSM   C12S  451   1.007   1.731   4.700
    4OSM   H12S  452   1.040   1.639   4.753
    4OSM   H12T  453   1.090   1.761   4.632
    4OSM   C13S  454   0.885   1.700   4.613
    4OSM   H13S  455   0.872   1.784   4.541
    4OSM   H13T  456   0.795   1.695   4.678
    4OSM   C14S  457   0.893   1.568   4.535
    4OSM   H14S  458   0.816   1.502   4.580
    4OSM   H14T  459   0.991   1.518   4.548
    4OSM   C15S  460   0.861   1.583   4.385
    4OSM   H15S  461   0.769   1.643   4.373
    4OSM   H15T  462   0.842   1.480   4.346
    4OSM   C16S  463   0.975   1.642   4.301
    4OSM   H16S  464   1.056   1.567   4.292
    4OSM   H16T  465   1.016   1.731   4.353
    4OSM   C17S  466   0.928   1.686   4.161
    4OSM   H17S  467   0.858   1.773   4.174
    4OSM   H17T  468   0.870   1.604   4.113
    4OSM   C18S  469   1.043   1.727   4.069
    4OSM   H18S  470   1.007   1.790   3.985
    4OSM   H18T  471   1.091   1.637   4.026
    4OSM   H18U  472   1.120   1.783   4.126
    4OSM    C1F  473   0.806   2.290   5.683
    4OSM     OF  474   0.870   2.393   5.693
    4OSM    C2F  475   0.679   2.279   5.606
    4OSM    H2F  476   0.700   2.320   5.505
    4OSM    H2G  477   0.604   2.341   5.656
    4OSM    C3F  478   0.627   2.132   5.597
    4OSM    H3F  479   0.583   2.101   5.694
    4OSM    H3G  480   0.707   2.060   5.569
    4OSM    C4F  481   0.524   2.110   5.486
    4OSM    H4F  482   0.441   2.184   5.495
    4OSM    H4G  483   0.478   2.010   5.501
    4OSM    C5F  484   0.590   2.116   5.348
    4OSM    H5F  485   0.643   2.020   5.329
    4OSM    H5G  486   0.667   2.196   5.344
    4OSM    C6F  487   0.491   2.145   5.237
    4OSM    H6F  488   0.459   2.251   5.241
    4OSM    H6G  489   0.399   2.084   5.251
    4OSM    C7F  490   0.551   2.114   5.099
    4OSM    H7F  491   0.579   2.006   5.096
    4OSM    H7G  492   0.646   2.170   5.083
    4OSM    C8F  493   0.450   2.142   4.988
    4OSM    H8F  494   0.349   2.107   5.018
    4OSM    H8G  495   0.479   2.086   4.898
    4OSM    C9F  496   0.446   2.288   4.957
    4OSM    H9F  497   0.486   2.354   5.035
    4OSM   C10F  498   0.408   2.339   4.839
    4OSM   H10F  499   0.423   2.447   4.825
    4OSM   C11F  500   0.365   2.261   4.718
    4OSM   H11F  501   0.269   2.301   4.678
    4OSM   H11G  502   0.347   2.154   4.742
    4OSM   C12F  503   0.476   2.268   4.611
    4OSM   H12F  504   0.469   2.363   4.555
    4OSM   H12G  505   0.456   2.187   4.538
    4OSM   C13F  506   0.617   2.254   4.671
    4OSM   H13F  507   0.620   2.156   4.723
    4OSM   H13G  508   0.635   2.333   4.748
    4OSM   C14F  509   0.740   2.267   4.581
    4OSM   H14F  510   0.765   2.375   4.572
    4OSM   H14G  511   0.725   2.228   4.478
    4OSM   C15F  512   0.856   2.192   4.648
    4OSM   H15F  513   0.845   2.082   4.633
    4OSM   H15G  514   0.848   2.211   4.757
    4OSM   C16F  515   0.994   2.238   4.602
    4OSM   H16F  516   1.067   2.213   4.683
    4OSM   H16G  517   0.991   2.347   4.590
    4OSM   C17F  518   1.042   2.178   4.470
    4OSM   H17F  519   1.118   2.247   4.426
    4OSM   H17G  520   0.956   2.173   4.399
    4OSM   C18F  521   1.103   2.040   4.488
    4OSM   H18F  522   1.189   2.046   4.557
    4OSM   H18G  523   1.136   1.999   4.390
    4OSM   H18H  524   1.027   1.971   4.532
    5OSM      N  525   1.160   4.171   6.213
    5OSM    C15  526   1.255   4.212   6.104
    5OSM   H15A  527   1.352   4.243   6.139
    5OSM   H15B  528   1.212   4.279   6.031
    5OSM   H15C  529   1.279   4.120   6.047
    5OSM    C14  530   1.234   4.066   6.291
    5OSM   H14A  531   1.323   4.104   6.339
    5OSM   H14B  532   1.265   3.987   6.222
    5OSM   H14C  533   1.172   4.017   6.365
    5OSM    C13  534   1.120   4.276   6.311
    5OSM   H13A  535   1.067   4.357   6.265
    5OSM   H13B  536   1.205   4.313   6.367
    5OSM   H13C  537   1.053   4.234   6.387
    5OSM    C12  538   1.037   4.105   6.151
    5OSM   H12A  539   0.956   4.176   6.138
    5OSM   H12B  540   0.998   4.034   6.224
    5OSM    C11  541   1.057   4.030   6.017
    5OSM   H11A  542   1.081   4.103   5.935
    5OSM   H11B  543   0.961   3.982   5.986
    5OSM      P  544   1.137   3.791   6.079
    5OSM    O13  545   1.266   3.728   6.109
    5OSM    O14  546   1.042   3.794   6.193
    5OSM    O11  547   1.073   3.719   5.951
    5OSM    O12  548   1.164   3.936   6.026
    5OSM    C1S  549   1.148   3.713   5.829
    5OSM    H1S  550   1.155   3.607   5.796
    5OSM    H1T  551   1.254   3.747   5.839
    5OSM     NF  552   1.112   3.927   5.701
    5OSM    HNF  553   1.037   3.990   5.712
    5OSM    C2S  554   1.082   3.786   5.707
    5OSM    H2S  555   1.125   3.739   5.616
    5OSM    C3S  556   0.928   3.767   5.706
    5OSM    H3S  557   0.882   3.847   5.768
    5OSM     O3  558   0.885   3.647   5.765
    5OSM    HO3  559   0.937   3.651   5.847
    5OSM    C4S  560   0.879   3.776   5.565
    5OSM    H4S  561   0.922   3.703   5.496
    5OSM    C5S  562   0.786   3.863   5.522
    5OSM    H5S  563   0.738   3.930   5.595
    5OSM    C6S  564   0.734   3.876   5.382
    5OSM    H6S  565   0.712   3.984   5.369
    5OSM    H6T  566   0.636   3.822   5.375
    5OSM    C7S  567   0.816   3.840   5.256
    5OSM    H7S  568   0.750   3.782   5.188
    5OSM    H7T  569   0.903   3.775   5.280
    5OSM    C8S  570   0.862   3.966   5.179
    5OSM    H8S  571   0.944   4.016   5.233
    5OSM    H8T  572   0.776   4.037   5.172
    5OSM    C9S  573   0.906   3.934   5.036
    5OSM    H9S  574   0.850   3.845   4.999
    5OSM    H9T  575   1.013   3.907   5.039
    5OSM   C10S  576   0.889   4.047   4.933
    5OSM   H10S  577   0.945   4.137   4.965
    5OSM   H10T  578   0.780   4.073   4.929
    5OSM   C11S  579   0.935   4.003   4.793
    5OSM   H11S  580   0.885   4.066   4.716
    5OSM   H11T  581   0.902   3.898   4.778
    5OSM   C12S  582   1.088   4.013   4.774
    5OSM   H12S  583   1.134   3.953   4.854
    5OSM   H12T  584   1.118   4.119   4.786
    5OSM   C13S  585   1.142   3.959   4.640
    5OSM   H13S  586   1.088   4.000   4.553
    5OSM   H13T  587   1.123   3.851   4.642
    5OSM   C14S  588   1.293   3.970   4.616
    5OSM   H14S  589   1.346   3.965   4.714
    5OSM   H14T  590   1.317   4.067   4.568
    5OSM   C15S  591   1.348   3.854   4.529
    5OSM   H15S  592   1.332   3.759   4.584
    5OSM   H15T  593   1.458   3.867   4.515
    5OSM   C16S  594   1.283   3.841   4.390
    5OSM   H16S  595   1.308   3.929   4.328
    5OSM   H16T  596   1.172   3.840   4.401
    5OSM   C17S  597   1.326   3.712   4.319
    5OSM   H17S  598   1.366   3.640   4.395
    5OSM   H17T  599   1.409   3.734   4.249
    5OSM   C18S  600   1.212   3.641   4.246
    5OSM   H18S  601   1.137   3.603   4.320
    5OSM   H18T  602   1.250   3.556   4.186
    5OSM   H18U  603   1.158   3.710   4.178
    5OSM    C1F  604   1.235   3.973   5.677
    5OSM     OF  605   1.335   3.906   5.692
    5OSM    C2F  606   1.242   4.113   5.627
    5OSM    H2F  607   1.298   4.175   5.701
    5OSM    H2G  608   1.140   4.155   5.614
    5OSM    C3F  609   1.316   4.113   5.492
    5OSM    H3F  610   1.413   4.059   5.501
    5OSM    H3G  611   1.339   4.218   5.469
    5OSM    C4F  612   1.237   4.060   5.372
    5OSM    H4F  613   1.144   4.119   5.361
    5OSM    H4G  614   1.210   3.953   5.387
    5OSM    C5F  615   1.321   4.077   5.244
    5OSM    H5F  616   1.402   4.001   5.243
    5OSM    H5G  617   1.370   4.177   5.249
    5OSM    C6F  618   1.242   4.072   5.114
    5OSM    H6F  619   1.151   4.136   5.120
    5OSM    H6G  620   1.208   3.968   5.097
    5OSM    C7F  621   1.327   4.115   4.993
    5OSM    H7F  622   1.304   4.049   4.907
    5OSM    H7G  623   1.435   4.101   5.015
    5OSM    C8F  624   1.300   4.261   4.953
    5OSM    H8F  625   1.344   4.321   5.035
    5OSM    H8G  626   1.190   4.281   4.952
    5OSM    C9F  627   1.362   4.300   4.822
    5OSM    H9F  628   1.456   4.246   4.802
    5OSM   C10F  629   1.318   4.388   4.730
    5OSM   H10F  630   1.374   4.399   4.637
    5OSM   C11F  631   1.195   4.474   4.728
    5OSM   H11F  632   1.210   4.555   4.653
    5OSM   H11G  633   1.177   4.524   4.826
    5OSM   C12F  634   1.069   4.398   4.685
    5OSM   H12F  635   0.991   4.473   4.657
    5OSM   H12G  636   1.029   4.337   4.769
    5OSM   C13F  637   1.093   4.306   4.564
    5OSM   H13F  638   1.157   4.220   4.594
    5OSM   H13G  639   1.150   4.364   4.490
    5OSM   C14F  640   0.964   4.253   4.502
    5OSM   H14F  641   0.879   4.308   4.545
    5OSM   H14G  642   0.947   4.146   4.527
    5OSM   C15F  643   0.955   4.276   4.353
    5OSM   H15F  644   0.860   4.229   4.316
    5OSM   H15G  645   1.039   4.226   4.301
    5OSM   C16F  646   0.952   4.426   4.320
    5OSM   H16F  647   1.046   4.475   4.352
    5OSM   H16G  648   0.868   4.474   4.376
    5OSM   C17F  649   0.934   4.446   4.171
    5OSM   H17F  650   0.840   4.395   4.140
    5OSM   H17G  651   1.022   4.397   4.122
    5OSM   C18F  652   0.931   4.590   4.123
    5OSM   H18F  653   0.872   4.599   4.030
    5OSM   H18G  654   1.035   4.623   4.102
    5OSM   H18H  655   0.888   4.654   4.202
    6OSM      N  656   1.551   0.933   6.270
    6OSM    C15  657   1.686   0.871   6.253
    6OSM   H15A  658   1.765   0.940   6.282
    6OSM   H15B  659   1.701   0.846   6.148
    6OSM   H15C  660   1.697   0.780   6.309
    6OSM    C14  661   1.526   0.953   6.416
    6OSM   H14A  662   1.608   1.013   6.457
    6OSM   H14B  663   1.527   0.860   6.473
    6OSM   H14C  664   1.433   1.005   6.437
    6OSM    C13  665   1.558   1.067   6.202
    6OSM   H13A  666   1.461   1.115   6.202
    6OSM   H13B  667   1.592   1.051   6.100
    6OSM   H13C  668   1.629   1.130   6.255
    6OSM    C12  669   1.446   0.848   6.203
    6OSM   H12A  670   1.348   0.884   6.232
    6OSM   H12B  671   1.456   0.745   6.239
    6OSM    C11  672   1.445   0.840   6.047
    6OSM   H11A  673   1.422   0.941   6.005
    6OSM   H11B  674   1.359   0.776   6.016
    6OSM      P  675   1.600   0.637   6.006
    6OSM    O13  676   1.743   0.622   6.039
    6OSM    O14  677   1.502   0.580   6.104
    6OSM    O11  678   1.569   0.583   5.861
    6OSM    O12  679   1.569   0.793   5.993
    6OSM    C1S  680   1.678   0.552   5.773
    6OSM    H1S  681   1.719   0.452   5.799
    6OSM    H1T  682   1.764   0.624   5.782
    6OSM     NF  683   1.731   0.468   5.554
    6OSM    HNF  684   1.816   0.511   5.527
    6OSM    C2S  685   1.633   0.552   5.624
    6OSM    H2S  686   1.532   0.507   5.616
    6OSM    C3S  687   1.627   0.705   5.579
    6OSM    H3S  688   1.725   0.754   5.598
    6OSM     O3  689   1.529   0.776   5.655
    6OSM    HO3  690   1.513   0.719   5.733
    6OSM    C4S  691   1.587   0.730   5.432
    6OSM    H4S  692   1.524   0.653   5.387
    6OSM    C5S  693   1.619   0.845   5.363
    6OSM    H5S  694   1.676   0.921   5.418
    6OSM    C6S  695   1.589   0.889   5.219
    6OSM    H6S  696   1.675   0.946   5.178
    6OSM    H6T  697   1.502   0.959   5.216
    6OSM    C7S  698   1.563   0.772   5.123
    6OSM    H7S  699   1.475   0.716   5.159
    6OSM    H7T  700   1.651   0.709   5.128
    6OSM    C8S  701   1.553   0.791   4.970
    6OSM    H8S  702   1.650   0.833   4.934
    6OSM    H8T  703   1.471   0.859   4.942
    6OSM    C9S  704   1.536   0.651   4.903
    6OSM    H9S  705   1.479   0.584   4.971
    6OSM    H9T  706   1.636   0.604   4.893
    6OSM   C10S  707   1.465   0.654   4.768
    6OSM   H10S  708   1.498   0.744   4.712
    6OSM   H10T  709   1.356   0.663   4.788
    6OSM   C11S  710   1.485   0.531   4.677
    6OSM   H11S  711   1.472   0.437   4.734
    6OSM   H11T  712   1.589   0.534   4.638
    6OSM   C12S  713   1.387   0.533   4.560
    6OSM   H12S  714   1.395   0.630   4.505
    6OSM   H12T  715   1.285   0.527   4.603
    6OSM   C13S  716   1.402   0.418   4.460
    6OSM   H13S  717   1.321   0.425   4.383
    6OSM   H13T  718   1.388   0.322   4.514
    6OSM   C14S  719   1.537   0.415   4.386
    6OSM   H14S  720   1.535   0.329   4.316
    6OSM   H14T  721   1.619   0.398   4.459
    6OSM   C15S  722   1.570   0.542   4.306
    6OSM   H15S  723   1.597   0.624   4.378
    6OSM   H15T  724   1.481   0.576   4.249
    6OSM   C16S  725   1.687   0.518   4.209
    6OSM   H16S  726   1.648   0.456   4.125
    6OSM   H16T  727   1.765   0.459   4.262
    6OSM   C17S  728   1.750   0.646   4.154
    6OSM   H17S  729   1.789   0.705   4.240
    6OSM   H17T  730   1.671   0.706   4.104
    6OSM   C18S  731   1.864   0.621   4.054
    6OSM   H18S  732   1.947   0.564   4.101
    6OSM   H18T  733   1.904   0.718   4.017
    6OSM   H18U  734   1.827   0.564   3.966
    6OSM    C1F  735   1.729   0.331   5.552
    6OSM     OF  736   1.639   0.271   5.610
    6OSM    C2F  737   1.841   0.260   5.471
    6OSM    H2F  738   1.919   0.232   5.545
    6OSM    H2G  739   1.886   0.333   5.403
    6OSM    C3F  740   1.807   0.129   5.387
    6OSM    H3F  741   1.699   0.119   5.378
    6OSM    H3G  742   1.838   0.046   5.455
    6OSM    C4F  743   1.881   0.094   5.251
    6OSM    H4F  744   1.882  -0.017   5.251
    6OSM    H4G  745   1.988   0.119   5.258
    6OSM    C5F  746   1.815   0.127   5.111
    6OSM    H5F  747   1.737   0.201   5.131
    6OSM    H5G  748   1.763   0.034   5.079
    6OSM    C6F  749   1.891   0.182   4.983
    6OSM    H6F  750   1.894   0.100   4.910
    6OSM    H6G  751   1.996   0.205   5.006
    6OSM    C7F  752   1.826   0.309   4.918
    6OSM    H7F  753   1.838   0.391   4.989
    6OSM    H7G  754   1.717   0.291   4.909
    6OSM    C8F  755   1.864   0.368   4.780
    6OSM    H8F  756   1.768   0.409   4.739
    6OSM    H8G  757   1.892   0.287   4.710
    6OSM    C9F  758   1.965   0.480   4.781
    6OSM    H9F  759   2.062   0.451   4.824
    6OSM   C10F  760   1.949   0.609   4.740
    6OSM   H10F  761   2.037   0.674   4.745
    6OSM   C11F  762   1.828   0.678   4.681
    6OSM   H11F  763   1.750   0.693   4.759
    6OSM   H11G  764   1.783   0.617   4.599
    6OSM   C12F  765   1.855   0.820   4.623
    6OSM   H12F  766   1.933   0.810   4.545
    6OSM   H12G  767   1.895   0.887   4.702
    6OSM   C13F  768   1.733   0.890   4.560
    6OSM   H13F  769   1.677   0.944   4.639
    6OSM   H13G  770   1.666   0.813   4.517
    6OSM   C14F  771   1.772   0.988   4.448
    6OSM   H14F  772   1.807   0.930   4.360
    6OSM   H14G  773   1.856   1.051   4.482
    6OSM   C15F  774   1.657   1.081   4.404
    6OSM   H15F  775   1.692   1.142   4.318
    6OSM   H15G  776   1.636   1.151   4.488
    6OSM   C16F  777   1.525   1.011   4.366
    6OSM   H16F  778   1.448   1.088   4.343
    6OSM   H16G  779   1.487   0.953   4.452
    6OSM   C17F  780   1.536   0.919   4.243
    6OSM   H17F  781   1.601   0.834   4.272
    6OSM   H17G  782   1.585   0.974   4.160
    6OSM   C18F  783   1.401   0.865   4.194
    6OSM   H18F  784   1.348   0.810   4.275
    6OSM   H18G  785   1.416   0.796   4.109
    6OSM   H18H  786   1.335   0.948   4.160
    7OSM      N  787   3.125   4.776   6.266
    7OSM    C15  788   3.247   4.862   6.246
    7OSM   H15A  789   3.274   4.914   6.337
    7OSM   H15B  790   3.230   4.932   6.166
    7OSM   H15C  791   3.330   4.799   6.216
    7OSM    C14  792   3.152   4.688   6.384
    7OSM   H14A  793   3.171   4.748   6.473
    7OSM   H14B  794   3.239   4.625   6.364
    7OSM   H14C  795   3.069   4.622   6.406
    7OSM    C13  796   3.006   4.864   6.292
    7OSM   H13A  797   2.918   4.809   6.323
    7OSM   H13B  798   2.982   4.920   6.202
    7OSM   H13C  799   3.030   4.937   6.369
    7OSM    C12  800   3.103   4.694   6.139
    7OSM   H12A  801   3.096   4.763   6.055
    7OSM   H12B  802   3.006   4.646   6.145
    7OSM    C11  803   3.204   4.582   6.099
    7OSM   H11A  804   3.160   4.532   6.009
    7OSM   H11B  805   3.210   4.506   6.178
    7OSM      P  806   3.430   4.581   5.959
    7OSM    O13  807   3.485   4.693   5.883
    7OSM    O14  808   3.528   4.488   6.021
    7OSM    O11  809   3.339   4.495   5.864
    7OSM    O12  810   3.335   4.633   6.074
    7OSM    C1S  811   3.371   4.451   5.733
    7OSM    H1S  812   3.341   4.344   5.725
    7OSM    H1T  813   3.480   4.457   5.712
    7OSM     NF  814   3.376   4.631   5.570
    7OSM    HNF  815   3.381   4.715   5.624
    7OSM    C2S  816   3.290   4.526   5.622
    7OSM    H2S  817   3.265   4.453   5.542
    7OSM    C3S  818   3.156   4.578   5.682
    7OSM    H3S  819   3.177   4.659   5.756
    7OSM     O3  820   3.085   4.474   5.752
    7OSM    HO3  821   3.156   4.426   5.796
    7OSM    C4S  822   3.067   4.635   5.574
    7OSM    H4S  823   3.057   4.744   5.577
    7OSM    C5S  824   2.998   4.565   5.481
    7OSM    H5S  825   3.009   4.456   5.479
    7OSM    C6S  826   2.909   4.624   5.375
    7OSM    H6S  827   2.828   4.683   5.425
    7OSM    H6T  828   2.858   4.543   5.318
    7OSM    C7S  829   2.977   4.716   5.272
    7OSM    H7S  830   3.042   4.788   5.327
    7OSM    H7T  831   2.898   4.774   5.220
    7OSM    C8S  832   3.061   4.644   5.166
    7OSM    H8S  833   3.121   4.562   5.211
    7OSM    H8T  834   3.132   4.720   5.128
    7OSM    C9S  835   2.980   4.594   5.045
    7OSM    H9S  836   2.889   4.656   5.031
    7OSM    H9T  837   2.948   4.489   5.064
    7OSM   C10S  838   3.064   4.603   4.917
    7OSM   H10S  839   3.161   4.552   4.936
    7OSM   H10T  840   3.087   4.710   4.895
    7OSM   C11S  841   3.000   4.539   4.793
    7OSM   H11S  842   2.908   4.594   4.763
    7OSM   H11T  843   2.968   4.436   4.822
    7OSM   C12S  844   3.099   4.531   4.676
    7OSM   H12S  845   3.197   4.496   4.716
    7OSM   H12T  846   3.114   4.632   4.632
    7OSM   C13S  847   3.055   4.433   4.567
    7OSM   H13S  848   2.978   4.482   4.503
    7OSM   H13T  849   3.006   4.347   4.618
    7OSM   C14S  850   3.166   4.372   4.480
    7OSM   H14S  851   3.121   4.315   4.396
    7OSM   H14T  852   3.221   4.299   4.544
    7OSM   C15S  853   3.272   4.469   4.428
    7OSM   H15S  854   3.305   4.532   4.513
    7OSM   H15T  855   3.230   4.537   4.350
    7OSM   C16S  856   3.397   4.395   4.378
    7OSM   H16S  857   3.378   4.343   4.282
    7OSM   H16T  858   3.422   4.315   4.452
    7OSM   C17S  859   3.520   4.485   4.365
    7OSM   H17S  860   3.609   4.421   4.347
    7OSM   H17T  861   3.537   4.540   4.461
    7OSM   C18S  862   3.508   4.586   4.250
    7OSM   H18S  863   3.488   4.533   4.155
    7OSM   H18T  864   3.602   4.644   4.240
    7OSM   H18U  865   3.424   4.656   4.268
    7OSM    C1F  866   3.474   4.591   5.488
    7OSM     OF  867   3.475   4.476   5.446
    7OSM    C2F  868   3.585   4.684   5.453
    7OSM    H2F  869   3.682   4.633   5.476
    7OSM    H2G  870   3.580   4.776   5.513
    7OSM    C3F  871   3.580   4.715   5.302
    7OSM    H3F  872   3.564   4.622   5.242
    7OSM    H3G  873   3.680   4.753   5.272
    7OSM    C4F  874   3.472   4.818   5.264
    7OSM    H4F  875   3.443   4.878   5.353
    7OSM    H4G  876   3.382   4.764   5.229
    7OSM    C5F  877   3.524   4.914   5.157
    7OSM    H5F  878   3.601   4.862   5.095
    7OSM    H5G  879   3.573   4.999   5.206
    7OSM    C6F  880   3.417   4.975   5.066
    7OSM    H6F  881   3.465   5.055   5.005
    7OSM    H6G  882   3.339   5.023   5.128
    7OSM    C7F  883   3.356   4.873   4.970
    7OSM    H7F  884   3.284   4.928   4.906
    7OSM    H7G  885   3.299   4.797   5.028
    7OSM    C8F  886   3.462   4.802   4.884
    7OSM    H8F  887   3.521   4.730   4.945
    7OSM    H8G  888   3.532   4.879   4.845
    7OSM    C9F  889   3.389   4.731   4.774
    7OSM    H9F  890   3.330   4.643   4.805
    7OSM   C10F  891   3.389   4.769   4.646
    7OSM   H10F  892   3.323   4.717   4.575
    7OSM   C11F  893   3.461   4.888   4.588
    7OSM   H11F  894   3.568   4.889   4.617
    7OSM   H11G  895   3.417   4.984   4.624
    7OSM   C12F  896   3.452   4.876   4.436
    7OSM   H12F  897   3.348   4.854   4.402
    7OSM   H12G  898   3.517   4.790   4.408
    7OSM   C13F  899   3.502   4.997   4.356
    7OSM   H13F  900   3.605   5.020   4.390
    7OSM   H13G  901   3.439   5.086   4.376
    7OSM   C14F  902   3.503   4.962   4.206
    7OSM   H14F  903   3.400   4.937   4.172
    7OSM   H14G  904   3.564   4.870   4.196
    7OSM   C15F  905   3.564   5.068   4.113
    7OSM   H15F  906   3.625   5.140   4.171
    7OSM   H15G  907   3.482   5.124   4.063
    7OSM   C16F  908   3.654   4.999   4.009
    7OSM   H16F  909   3.597   4.915   3.964
    7OSM   H16G  910   3.739   4.951   4.062
    7OSM   C17F  911   3.708   5.088   3.897
    7OSM   H17F  912   3.783   5.028   3.840
    7OSM   H17G  913   3.762   5.175   3.941
    7OSM   C18F  914   3.602   5.138   3.798
    7OSM   H18F  915   3.652   5.176   3.707
    7OSM   H18G  916   3.541   5.218   3.844
    7OSM   H18H  917   3.534   5.057   3.766
    8OSM      N  918   1.521   4.491   6.228
    8OSM    C15  919   1.451   4.392   6.315
    8OSM   H15A  920   1.374   4.339   6.261
    8OSM   H15B  921   1.406   4.445   6.400
    8OSM   H15C  922   1.519   4.318   6.357
    8OSM    C14  923   1.604   4.576   6.320
    8OSM   H14A  924   1.539   4.635   6.385
    8OSM   H14B  925   1.665   4.645   6.261
    8OSM   H14C  926   1.665   4.516   6.385
    8OSM    C13  927   1.604   4.420   6.124
    8OSM   H13A  928   1.667   4.342   6.160
    8OSM   H13B  929   1.662   4.496   6.070
    8OSM   H13C  930   1.541   4.378   6.046
    8OSM    C12  931   1.426   4.583   6.154
    8OSM   H12A  932   1.350   4.619   6.221
    8OSM   H12B  933   1.376   4.529   6.074
    8OSM    C11  934   1.491   4.709   6.088
    8OSM   H11A  935   1.489   4.787   6.168
    8OSM   H11B  936   1.426   4.746   6.006
    8OSM      P  937   1.730   4.796   6.034
    8OSM    O13  938   1.681   4.910   6.113
    8OSM    O14  939   1.862   4.740   6.071
    8OSM    O11  940   1.735   4.835   5.880
    8OSM    O12  941   1.623   4.681   6.040
    8OSM    C1S  942   1.746   4.722   5.792
    8OSM    H1S  943   1.664   4.651   5.814
    8OSM    H1T  944   1.843   4.670   5.806
    8OSM     NF  945   1.759   4.642   5.558
    8OSM    HNF  946   1.827   4.652   5.488
    8OSM    C2S  947   1.732   4.759   5.641
    8OSM    H2S  948   1.627   4.792   5.624
    8OSM    C3S  949   1.828   4.877   5.605
    8OSM    H3S  950   1.931   4.840   5.613
    8OSM     O3  951   1.820   4.992   5.688
    8OSM    HO3  952   1.768   4.960   5.762
    8OSM    C4S  953   1.802   4.919   5.463
    8OSM    H4S  954   1.726   4.997   5.450
    8OSM    C5S  955   1.873   4.873   5.359
    8OSM    H5S  956   1.953   4.799   5.377
    8OSM    C6S  957   1.853   4.912   5.216
    8OSM    H6S  958   1.932   4.984   5.188
    8OSM    H6T  959   1.755   4.963   5.199
    8OSM    C7S  960   1.867   4.794   5.119
    8OSM    H7S  961   1.951   4.727   5.145
    8OSM    H7T  962   1.892   4.841   5.021
    8OSM    C8S  963   1.737   4.715   5.104
    8OSM    H8S  964   1.655   4.789   5.090
    8OSM    H8T  965   1.715   4.659   5.197
    8OSM    C9S  966   1.735   4.622   4.982
    8OSM    H9S  967   1.630   4.587   4.967
    8OSM    H9T  968   1.797   4.532   5.002
    8OSM   C10S  969   1.783   4.689   4.852
    8OSM   H10S  970   1.894   4.701   4.854
    8OSM   H10T  971   1.738   4.791   4.846
    8OSM   C11S  972   1.744   4.612   4.725
    8OSM   H11S  973   1.764   4.677   4.636
    8OSM   H11T  974   1.635   4.594   4.729
    8OSM   C12S  975   1.820   4.480   4.706
    8OSM   H12S  976   1.810   4.418   4.798
    8OSM   H12T  977   1.928   4.505   4.694
    8OSM   C13S  978   1.771   4.398   4.586
    8OSM   H13S  979   1.843   4.317   4.561
    8OSM   H13T  980   1.765   4.465   4.498
    8OSM   C14S  981   1.636   4.333   4.616
    8OSM   H14S  982   1.571   4.414   4.653
    8OSM   H14T  983   1.649   4.259   4.698
    8OSM   C15S  984   1.564   4.265   4.498
    8OSM   H15S  985   1.463   4.234   4.532
    8OSM   H15T  986   1.616   4.171   4.471
    8OSM   C16S  987   1.551   4.354   4.373
    8OSM   H16S  988   1.652   4.375   4.333
    8OSM   H16T  989   1.504   4.451   4.402
    8OSM   C17S  990   1.468   4.291   4.261
    8OSM   H17S  991   1.508   4.189   4.242
    8OSM   H17T  992   1.481   4.350   4.168
    8OSM   C18S  993   1.319   4.281   4.293
    8OSM   H18S  994   1.276   4.382   4.310
    8OSM   H18T  995   1.302   4.220   4.384
    8OSM   H18U  996   1.263   4.234   4.209
    8OSM    C1F  997   1.687   4.529   5.563
    8OSM     OF  998   1.620   4.501   5.661
    8OSM    C2F  999   1.690   4.437   5.446
    8OSM    H2F 1000   1.772   4.363   5.460
    8OSM    H2G 1001   1.707   4.493   5.352
    8OSM    C3F 1002   1.554   4.364   5.441
    8OSM    H3F 1003   1.536   4.312   5.539
    8OSM    H3G 1004   1.557   4.283   5.365
    8OSM    C4F 1005   1.435   4.457   5.413
    8OSM    H4F 1006   1.448   4.557   5.461
    8OSM    H4G 1007   1.343   4.415   5.458
    8OSM    C5F 1008   1.410   4.476   5.263
    8OSM    H5F 1009   1.441   4.383   5.210
    8OSM    H5G 1010   1.475   4.558   5.225
    8OSM    C6F 1011   1.262   4.502   5.232
    8OSM    H6F 1012   1.219   4.574   5.305
    8OSM    H6G 1013   1.208   4.405   5.245
    8OSM    C7F 1014   1.239   4.553   5.089
    8OSM    H7F 1015   1.148   4.501   5.051
    8OSM    H7G 1016   1.322   4.522   5.022
    8OSM    C8F 1017   1.216   4.704   5.078
    8OSM    H8F 1018   1.155   4.740   5.164
    8OSM    H8G 1019   1.157   4.723   4.985
    8OSM    C9F 1020   1.350   4.771   5.073
    8OSM    H9F 1021   1.411   4.758   5.164
    8OSM   C10F 1022   1.402   4.839   4.970
    8OSM   H10F 1023   1.506   4.874   4.981
    8OSM   C11F 1024   1.343   4.866   4.834
    8OSM   H11F 1025   1.318   4.975   4.827
    8OSM   H11G 1026   1.249   4.810   4.815
    8OSM   C12F 1027   1.441   4.834   4.719
    8OSM   H12F 1028   1.457   4.725   4.713
    8OSM   H12G 1029   1.540   4.881   4.742
    8OSM   C13F 1030   1.394   4.889   4.584
    8OSM   H13F 1031   1.364   4.995   4.599
    8OSM   H13G 1032   1.303   4.834   4.550
    8OSM   C14F 1033   1.502   4.886   4.474
    8OSM   H14F 1034   1.596   4.930   4.515
    8OSM   H14G 1035   1.469   4.951   4.390
    8OSM   C15F 1036   1.533   4.746   4.418
    8OSM   H15F 1037   1.445   4.709   4.362
    8OSM   H15G 1038   1.550   4.676   4.503
    8OSM   C16F 1039   1.658   4.743   4.327
    8OSM   H16F 1040   1.672   4.639   4.290
    8OSM   H16G 1041   1.747   4.768   4.388
    8OSM   C17F 1042   1.652   4.837   4.206
    8OSM   H17F 1043   1.636   4.942   4.241
    8OSM   H17G 1044   1.565   4.809   4.143
    8OSM   C18F 1045   1.780   4.834   4.121
    8OSM   H18F 1046   1.768   4.895   4.030
    8OSM   H18G 1047   1.804   4.730   4.091
    8OSM   H18H 1048   1.866   4.875   4.179
    9OSM      N 1049   4.551   1.477   6.313
    9OSM    C15 1050   4.446   1.385   6.255
    9OSM   H15A 1051   4.474   1.281   6.267
    9OSM   H15B 1052   4.440   1.400   6.147
    9OSM   H15C 1053   4.348   1.400   6.299
    9OSM    C14 1054   4.507   1.619   6.298
    9OSM   H14A 1055   4.481   1.637   6.195
    9OSM   H14B 1056   4.587   1.685   6.330
    9OSM   H14C 1057   4.421   1.637   6.363
    9OSM    C13 1058   4.565   1.452   6.458
    9OSM   H13A 1059   4.646   1.510   6.501
    9OSM   H13B 1060   4.584   1.347   6.480
    9OSM   H13C 1061   4.475   1.481   6.511
    9OSM    C12 1062   4.683   1.451   6.242
    9OSM   H12A 1063   4.697   1.343   6.236
    9OSM   H12B 1064   4.764   1.489   6.303
    9OSM    C11 1065   4.699   1.506   6.099
    9OSM   H11A 1066   4.802   1.483   6.062
    9OSM   H11B 1067   4.691   1.616   6.098
    9OSM      P 1068   4.628   1.318   5.932
    9OSM    O13 1069   4.715   1.229   6.012
    9OSM    O14 1070   4.499   1.267   5.881
    9OSM    O11 1071   4.712   1.378   5.812
    9OSM    O12 1072   4.598   1.450   6.016
    9OSM    C1S 1073   4.645   1.403   5.689
    9OSM    H1S 1074   4.704   1.475   5.628
    9OSM    H1T 1075   4.546   1.453   5.706
    9OSM     NF 1076   4.745   1.255   5.524
    9OSM    HNF 1077   4.745   1.289   5.432
    9OSM    C2S 1078   4.625   1.274   5.604
    9OSM    H2S 1079   4.610   1.185   5.670
    9OSM    C3S 1080   4.495   1.294   5.521
    9OSM    H3S 1081   4.481   1.401   5.495
    9OSM     O3 1082   4.379   1.253   5.593
    9OSM    HO3 1083   4.412   1.233   5.682
    9OSM    C4S 1084   4.495   1.213   5.394
    9OSM    H4S 1085   4.459   1.109   5.399
    9OSM    C5S 1086   4.532   1.270   5.279
    9OSM    H5S 1087   4.561   1.376   5.282
    9OSM    C6S 1088   4.536   1.209   5.142
    9OSM    H6S 1089   4.513   1.100   5.142
    9OSM    H6T 1090   4.634   1.223   5.092
    9OSM    C7S 1091   4.426   1.287   5.070
    9OSM    H7S 1092   4.425   1.396   5.096
    9OSM    H7T 1093   4.327   1.245   5.102
    9OSM    C8S 1094   4.432   1.286   4.918
    9OSM    H8S 1095   4.456   1.185   4.878
    9OSM    H8T 1096   4.514   1.354   4.885
    9OSM    C9S 1097   4.297   1.332   4.863
    9OSM    H9S 1098   4.236   1.375   4.947
    9OSM    H9T 1099   4.240   1.244   4.826
    9OSM   C10S 1100   4.303   1.441   4.756
    9OSM   H10S 1101   4.324   1.540   4.803
    9OSM   H10T 1102   4.201   1.446   4.713
    9OSM   C11S 1103   4.402   1.417   4.642
    9OSM   H11S 1104   4.506   1.430   4.679
    9OSM   H11T 1105   4.385   1.497   4.565
    9OSM   C12S 1106   4.388   1.279   4.575
    9OSM   H12S 1107   4.427   1.201   4.644
    9OSM   H12T 1108   4.453   1.278   4.485
    9OSM   C13S 1109   4.244   1.242   4.535
    9OSM   H13S 1110   4.179   1.331   4.537
    9OSM   H13T 1111   4.200   1.174   4.610
    9OSM   C14S 1112   4.237   1.172   4.398
    9OSM   H14S 1113   4.135   1.129   4.387
    9OSM   H14T 1114   4.310   1.088   4.398
    9OSM   C15S 1115   4.264   1.264   4.278
    9OSM   H15S 1116   4.212   1.222   4.189
    9OSM   H15T 1117   4.373   1.264   4.255
    9OSM   C16S 1118   4.216   1.408   4.303
    9OSM   H16S 1119   4.279   1.454   4.382
    9OSM   H16T 1120   4.113   1.405   4.343
    9OSM   C17S 1121   4.220   1.501   4.184
    9OSM   H17S 1122   4.151   1.585   4.203
    9OSM   H17T 1123   4.180   1.451   4.094
    9OSM   C18S 1124   4.360   1.560   4.164
    9OSM   H18S 1125   4.387   1.621   4.253
    9OSM   H18T 1126   4.363   1.625   4.074
    9OSM   H18U 1127   4.435   1.479   4.153
    9OSM    C1F 1128   4.854   1.205   5.580
    9OSM     OF 1129   4.852   1.130   5.677
    9OSM    C2F 1130   4.984   1.236   5.515
    9OSM    H2F 1131   5.065   1.193   5.578
    9OSM    H2G 1132   4.998   1.346   5.511
    9OSM    C3F 1133   4.990   1.174   5.374
    9OSM    H3F 1134   4.933   1.079   5.367
    9OSM    H3G 1135   5.096   1.151   5.351
    9OSM    C4F 1136   4.936   1.268   5.268
    9OSM    H4F 1137   4.994   1.363   5.268
    9OSM    H4G 1138   4.830   1.296   5.288
    9OSM    C5F 1139   4.940   1.208   5.128
    9OSM    H5F 1140   4.875   1.118   5.123
    9OSM    H5G 1141   5.044   1.177   5.103
    9OSM    C6F 1142   4.894   1.315   5.031
    9OSM    H6F 1143   4.974   1.391   5.026
    9OSM    H6G 1144   4.803   1.365   5.070
    9OSM    C7F 1145   4.862   1.259   4.892
    9OSM    H7F 1146   4.771   1.197   4.900
    9OSM    H7G 1147   4.945   1.194   4.856
    9OSM    C8F 1148   4.833   1.371   4.791
    9OSM    H8F 1149   4.751   1.435   4.832
    9OSM    H8G 1150   4.793   1.323   4.699
    9OSM    C9F 1151   4.957   1.452   4.766
    9OSM    H9F 1152   5.000   1.503   4.855
    9OSM   C10F 1153   5.020   1.468   4.649
    9OSM   H10F 1154   5.113   1.526   4.646
    9OSM   C11F 1155   4.976   1.407   4.519
    9OSM   H11F 1156   4.994   1.479   4.437
    9OSM   H11G 1157   4.867   1.386   4.519
    9OSM   C12F 1158   5.050   1.275   4.495
    9OSM   H12F 1159   5.036   1.207   4.582
    9OSM   H12G 1160   5.159   1.295   4.490
    9OSM   C13F 1161   5.003   1.199   4.369
    9OSM   H13F 1162   4.899   1.164   4.387
    9OSM   H13G 1163   5.067   1.110   4.357
    9OSM   C14F 1164   5.006   1.280   4.239
    9OSM   H14F 1165   5.111   1.305   4.212
    9OSM   H14G 1166   4.953   1.376   4.254
    9OSM   C15F 1167   4.943   1.209   4.119
    9OSM   H15F 1168   4.839   1.179   4.146
    9OSM   H15G 1169   5.000   1.118   4.094
    9OSM   C16F 1170   4.938   1.303   3.998
    9OSM   H16F 1171   5.038   1.351   3.988
    9OSM   H16G 1172   4.861   1.381   4.018
    9OSM   C17F 1173   4.905   1.241   3.863
    9OSM   H17F 1174   4.804   1.195   3.866
    9OSM   H17G 1175   4.979   1.162   3.844
    9OSM   C18F 1176   4.916   1.342   3.748
    9OSM   H18F 1177   4.874   1.300   3.654
    9OSM   H18G 1178   5.020   1.374   3.730
    9OSM   H18H 1179   4.860   1.435   3.774
   10OSM      N 1180   2.804   2.652   1.804
   10OSM    C15 1181   2.940   2.707   1.829
   10OSM   H15A 1182   3.003   2.696   1.741
   10OSM   H15B 1183   2.993   2.656   1.909
   10OSM   H15C 1184   2.937   2.810   1.858
   10OSM    C14 1185   2.749   2.699   1.672
   10OSM   H14A 1186   2.653   2.650   1.655
   10OSM   H14B 1187   2.813   2.671   1.588
   10OSM   H14C 1188   2.733   2.806   1.664
   10OSM    C13 1189   2.815   2.502   1.793
   10OSM   H13A 1190   2.877   2.470   1.710
   10OSM   H13B 1191   2.714   2.460   1.782
   10OSM   H13C 1192   2.855   2.458   1.884
   10OSM    C12 1193   2.709   2.683   1.920
   10OSM   H12A 1194   2.713   2.787   1.946
   10OSM   H12B 1195   2.744   2.628   2.008
   10OSM    C11 1196   2.560   2.643   1.907
   10OSM   H11A 1197   2.516   2.684   1.814
   10OSM   H11B 1198   2.504   2.688   1.992
   10OSM      P 1199   2.449   2.415   1.992
   10OSM    O13 1200   2.313   2.435   1.937
   10OSM    O14 1201   2.497   2.275   1.997
   10OSM    O11 1202   2.455   2.481   2.136
   10OSM    O12 1203   2.552   2.502   1.907
   10OSM    C1S 1204   2.577   2.491   2.208
   10OSM    H1S 1205   2.633   2.580   2.173
   10OSM    H1T 1206   2.642   2.401   2.194
   10OSM     NF 1207   2.671   2.513   2.439
   10OSM    HNF 1208   2.681   2.447   2.513
   10OSM    C2S 1209   2.548   2.506   2.360
   10OSM    H2S 1210   2.492   2.601   2.376
   10OSM    C3S 1211   2.458   2.388   2.401
   10OSM    H3S 1212   2.499   2.293   2.359
   10OSM     O3 1213   2.325   2.403   2.354
   10OSM    HO3 1214   2.336   2.450   2.270
   10OSM    C4S 1215   2.444   2.374   2.549
   10OSM    H4S 1216   2.370   2.441   2.596
   10OSM    C5S 1217   2.513   2.285   2.622
   10OSM    H5S 1218   2.586   2.221   2.571
   10OSM    C6S 1219   2.500   2.267   2.770
   10OSM    H6S 1220   2.524   2.161   2.794
   10OSM    H6T 1221   2.395   2.285   2.802
   10OSM    C7S 1222   2.588   2.357   2.857
   10OSM    H7S 1223   2.549   2.461   2.853
   10OSM    H7T 1224   2.692   2.356   2.820
   10OSM    C8S 1225   2.590   2.308   3.003
   10OSM    H8S 1226   2.664   2.225   3.011
   10OSM    H8T 1227   2.490   2.265   3.029
   10OSM    C9S 1228   2.624   2.418   3.105
   10OSM    H9S 1229   2.694   2.491   3.059
   10OSM    H9T 1230   2.676   2.371   3.191
   10OSM   C10S 1231   2.498   2.489   3.157
   10OSM   H10S 1232   2.440   2.416   3.217
   10OSM   H10T 1233   2.435   2.518   3.069
   10OSM   C11S 1234   2.524   2.615   3.242
   10OSM   H11S 1235   2.426   2.650   3.282
   10OSM   H11T 1236   2.563   2.695   3.175
   10OSM   C12S 1237   2.622   2.594   3.358
   10OSM   H12S 1238   2.721   2.569   3.313
   10OSM   H12T 1239   2.592   2.509   3.422
   10OSM   C13S 1240   2.642   2.721   3.443
   10OSM   H13S 1241   2.638   2.810   3.376
   10OSM   H13T 1242   2.743   2.717   3.488
   10OSM   C14S 1243   2.542   2.739   3.559
   10OSM   H14S 1244   2.445   2.690   3.535
   10OSM   H14T 1245   2.523   2.848   3.569
   10OSM   C15S 1246   2.597   2.687   3.693
   10OSM   H15S 1247   2.701   2.725   3.706
   10OSM   H15T 1248   2.605   2.576   3.688
   10OSM   C16S 1249   2.516   2.725   3.818
   10OSM   H16S 1250   2.573   2.690   3.907
   10OSM   H16T 1251   2.419   2.671   3.816
   10OSM   C17S 1252   2.488   2.875   3.838
   10OSM   H17S 1253   2.433   2.887   3.934
   10OSM   H17T 1254   2.420   2.911   3.757
   10OSM   C18S 1255   2.612   2.964   3.843
   10OSM   H18S 1256   2.680   2.930   3.924
   10OSM   H18T 1257   2.584   3.070   3.863
   10OSM   H18U 1258   2.666   2.962   3.746
   10OSM    C1F 1259   2.758   2.613   2.431
   10OSM     OF 1260   2.750   2.698   2.344
   10OSM    C2F 1261   2.865   2.614   2.536
   10OSM    H2F 1262   2.941   2.691   2.511
   10OSM    H2G 1263   2.914   2.514   2.535
   10OSM    C3F 1264   2.805   2.642   2.675
   10OSM    H3F 1265   2.697   2.616   2.681
   10OSM    H3G 1266   2.813   2.751   2.697
   10OSM    C4F 1267   2.874   2.562   2.787
   10OSM    H4F 1268   2.860   2.453   2.768
   10OSM    H4G 1269   2.821   2.588   2.881
   10OSM    C5F 1270   3.024   2.586   2.801
   10OSM    H5F 1271   3.041   2.696   2.809
   10OSM    H5G 1272   3.077   2.549   2.710
   10OSM    C6F 1273   3.083   2.517   2.925
   10OSM    H6F 1274   3.193   2.530   2.928
   10OSM    H6G 1275   3.064   2.407   2.921
   10OSM    C7F 1276   3.025   2.575   3.054
   10OSM    H7F 1277   2.916   2.551   3.058
   10OSM    H7G 1278   3.036   2.686   3.049
   10OSM    C8F 1279   3.089   2.523   3.182
   10OSM    H8F 1280   3.197   2.546   3.184
   10OSM    H8G 1281   3.076   2.412   3.188
   10OSM    C9F 1282   3.015   2.593   3.293
   10OSM    H9F 1283   2.966   2.687   3.262
   10OSM   C10F 1284   3.008   2.555   3.420
   10OSM   H10F 1285   2.944   2.613   3.488
   10OSM   C11F 1286   3.073   2.434   3.479
   10OSM   H11F 1287   3.167   2.408   3.426
   10OSM   H11G 1288   3.005   2.346   3.471
   10OSM   C12F 1289   3.103   2.462   3.627
   10OSM   H12F 1290   3.165   2.554   3.639
   10OSM   H12G 1291   3.164   2.378   3.666
   10OSM   C13F 1292   2.974   2.475   3.710
   10OSM   H13F 1293   2.897   2.407   3.668
   10OSM   H13G 1294   2.929   2.576   3.701
   10OSM   C14F 1295   2.998   2.441   3.857
   10OSM   H14F 1296   3.065   2.518   3.901
   10OSM   H14G 1297   3.052   2.344   3.865
   10OSM   C15F 1298   2.869   2.430   3.938
   10OSM   H15F 1299   2.815   2.528   3.933
   10OSM   H15G 1300   2.899   2.410   4.043
   10OSM   C16F 1301   2.775   2.316   3.898
   10OSM   H16F 1302   2.835   2.223   3.900
   10OSM   H16G 1303   2.737   2.330   3.794
   10OSM   C17F 1304   2.656   2.301   3.994
   10OSM   H17F 1305   2.694   2.295   4.098
   10OSM   H17G 1306   2.605   2.205   3.972
   10OSM   C18F 1307   2.552   2.413   3.985
   10OSM   H18F 1308   2.464   2.387   4.047
   10OSM   H18G 1309   2.518   2.426   3.880
   10OSM   H18H 1310   2.594   2.508   4.022
   11OSM      N 1311   2.846   3.127   1.759
   11OSM    C15 1312   2.897   3.248   1.689
   11OSM   H15A 1313   2.887   3.337   1.751
   11OSM   H15B 1314   2.853   3.267   1.592
   11OSM   H15C 1315   3.005   3.239   1.677
   11OSM    C14 1316   2.698   3.126   1.748
   11OSM   H14A 1317   2.658   3.217   1.791
   11OSM   H14B 1318   2.657   3.040   1.796
   11OSM   H14C 1319   2.667   3.122   1.643
   11OSM    C13 1320   2.902   3.010   1.685
   11OSM   H13A 1321   3.011   3.012   1.686
   11OSM   H13B 1322   2.872   3.014   1.580
   11OSM   H13C 1323   2.869   2.914   1.723
   11OSM    C12 1324   2.897   3.137   1.903
   11OSM   H12A 1325   3.004   3.114   1.904
   11OSM   H12B 1326   2.849   3.064   1.966
   11OSM    C11 1327   2.888   3.277   1.971
   11OSM   H11A 1328   2.893   3.264   2.081
   11OSM   H11B 1329   2.788   3.322   1.950
   11OSM      P 1330   3.138   3.350   1.980
   11OSM    O13 1331   3.187   3.213   1.954
   11OSM    O14 1332   3.225   3.457   1.926
   11OSM    O11 1333   3.120   3.368   2.135
   11OSM    O12 1334   2.990   3.365   1.922
   11OSM    C1S 1335   3.088   3.500   2.183
   11OSM    H1S 1336   3.006   3.547   2.123
   11OSM    H1T 1337   3.177   3.566   2.177
   11OSM     NF 1338   3.145   3.449   2.419
   11OSM    HNF 1339   3.153   3.351   2.431
   11OSM    C2S 1340   3.040   3.498   2.331
   11OSM    H2S 1341   3.016   3.604   2.359
   11OSM    C3S 1342   2.911   3.414   2.348
   11OSM    H3S 1343   2.931   3.309   2.318
   11OSM     O3 1344   2.801   3.458   2.267
   11OSM    HO3 1345   2.837   3.530   2.213
   11OSM    C4S 1346   2.879   3.413   2.497
   11OSM    H4S 1347   2.951   3.351   2.553
   11OSM    C5S 1348   2.782   3.473   2.569
   11OSM    H5S 1349   2.705   3.531   2.516
   11OSM    C6S 1350   2.766   3.463   2.720
   11OSM    H6S 1351   2.679   3.399   2.746
   11OSM    H6T 1352   2.741   3.564   2.756
   11OSM    C7S 1353   2.889   3.415   2.803
   11OSM    H7S 1354   2.980   3.461   2.758
   11OSM    H7T 1355   2.900   3.305   2.795
   11OSM    C8S 1356   2.888   3.459   2.952
   11OSM    H8S 1357   2.840   3.558   2.961
   11OSM    H8T 1358   2.994   3.469   2.985
   11OSM    C9S 1359   2.824   3.357   3.047
   11OSM    H9S 1360   2.897   3.276   3.058
   11OSM    H9T 1361   2.736   3.312   2.997
   11OSM   C10S 1362   2.783   3.410   3.187
   11OSM   H10S 1363   2.697   3.349   3.222
   11OSM   H10T 1364   2.747   3.515   3.178
   11OSM   C11S 1365   2.892   3.403   3.296
   11OSM   H11S 1366   2.966   3.482   3.274
   11OSM   H11T 1367   2.946   3.307   3.289
   11OSM   C12S 1368   2.841   3.420   3.441
   11OSM   H12S 1369   2.777   3.511   3.449
   11OSM   H12T 1370   2.932   3.436   3.504
   11OSM   C13S 1371   2.767   3.302   3.506
   11OSM   H13S 1372   2.813   3.208   3.469
   11OSM   H13T 1373   2.661   3.302   3.475
   11OSM   C14S 1374   2.779   3.297   3.660
   11OSM   H14S 1375   2.886   3.289   3.688
   11OSM   H14T 1376   2.728   3.204   3.695
   11OSM   C15S 1377   2.717   3.417   3.735
   11OSM   H15S 1378   2.618   3.439   3.692
   11OSM   H15T 1379   2.783   3.506   3.721
   11OSM   C16S 1380   2.698   3.388   3.885
   11OSM   H16S 1381   2.794   3.355   3.929
   11OSM   H16T 1382   2.628   3.302   3.893
   11OSM   C17S 1383   2.643   3.504   3.969
   11OSM   H17S 1384   2.579   3.464   4.050
   11OSM   H17T 1385   2.576   3.567   3.907
   11OSM   C18S 1386   2.751   3.589   4.037
   11OSM   H18S 1387   2.816   3.636   3.960
   11OSM   H18T 1388   2.815   3.526   4.102
   11OSM   H18U 1389   2.705   3.669   4.099
   11OSM    C1F 1390   3.248   3.525   2.453
   11OSM     OF 1391   3.269   3.631   2.397
   11OSM    C2F 1392   3.340   3.471   2.558
   11OSM    H2F 1393   3.411   3.551   2.588
   11OSM    H2G 1394   3.399   3.388   2.513
   11OSM    C3F 1395   3.267   3.418   2.684
   11OSM    H3F 1396   3.172   3.365   2.660
   11OSM    H3G 1397   3.241   3.505   2.747
   11OSM    C4F 1398   3.356   3.323   2.765
   11OSM    H4F 1399   3.459   3.366   2.767
   11OSM    H4G 1400   3.363   3.224   2.713
   11OSM    C5F 1401   3.310   3.301   2.910
   11OSM    H5F 1402   3.289   3.399   2.959
   11OSM    H5G 1403   3.394   3.252   2.964
   11OSM    C6F 1404   3.190   3.207   2.924
   11OSM    H6F 1405   3.216   3.112   2.872
   11OSM    H6G 1406   3.101   3.250   2.873
   11OSM    C7F 1407   3.154   3.173   3.070
   11OSM    H7F 1408   3.105   3.261   3.116
   11OSM    H7G 1409   3.247   3.153   3.127
   11OSM    C8F 1410   3.064   3.047   3.076
   11OSM    H8F 1411   3.127   2.961   3.106
   11OSM    H8G 1412   3.035   3.024   2.971
   11OSM    C9F 1413   2.937   3.053   3.157
   11OSM    H9F 1414   2.847   3.069   3.096
   11OSM   C10F 1415   2.920   3.044   3.290
   11OSM   H10F 1416   2.817   3.053   3.329
   11OSM   C11F 1417   3.023   3.024   3.397
   11OSM   H11F 1418   3.033   3.113   3.463
   11OSM   H11G 1419   3.124   3.008   3.353
   11OSM   C12F 1420   2.984   2.901   3.480
   11OSM   H12F 1421   3.074   2.836   3.487
   11OSM   H12G 1422   2.906   2.840   3.429
   11OSM   C13F 1423   2.935   2.929   3.622
   11OSM   H13F 1424   2.833   2.886   3.636
   11OSM   H13G 1425   2.925   3.038   3.642
   11OSM   C14F 1426   3.028   2.863   3.725
   11OSM   H14F 1427   3.134   2.890   3.700
   11OSM   H14G 1428   3.020   2.754   3.714
   11OSM   C15F 1429   2.998   2.906   3.868
   11OSM   H15F 1430   3.039   2.832   3.941
   11OSM   H15G 1431   2.888   2.910   3.883
   11OSM   C16F 1432   3.060   3.043   3.895
   11OSM   H16F 1433   3.051   3.106   3.804
   11OSM   H16G 1434   3.169   3.030   3.917
   11OSM   C17F 1435   2.994   3.117   4.010
   11OSM   H17F 1436   3.026   3.070   4.105
   11OSM   H17G 1437   2.883   3.107   3.999
   11OSM   C18F 1438   3.028   3.265   4.010
   11OSM   H18F 1439   3.137   3.279   4.020
   11OSM   H18G 1440   2.977   3.316   4.095
   11OSM   H18H 1441   2.998   3.314   3.915
   12OSM      N 1442   3.314   1.894   1.887
   12OSM    C15 1443   3.392   1.779   1.942
   12OSM   H15A 1444   3.479   1.759   1.882
   12OSM   H15B 1445   3.332   1.688   1.944
   12OSM   H15C 1446   3.423   1.798   2.044
   12OSM    C14 1447   3.403   2.014   1.874
   12OSM   H14A 1448   3.477   2.000   1.797
   12OSM   H14B 1449   3.452   2.038   1.968
   12OSM   H14C 1450   3.341   2.100   1.848
   12OSM    C13 1451   3.259   1.856   1.754
   12OSM   H13A 1452   3.170   1.793   1.765
   12OSM   H13B 1453   3.328   1.804   1.690
   12OSM   H13C 1454   3.219   1.945   1.705
   12OSM    C12 1455   3.195   1.926   1.979
   12OSM   H12A 1456   3.229   1.940   2.081
   12OSM   H12B 1457   3.132   1.837   1.984
   12OSM    C11 1458   3.102   2.046   1.946
   12OSM   H11A 1459   3.162   2.140   1.950
   12OSM   H11B 1460   3.024   2.056   2.026
   12OSM      P 1461   2.918   1.944   1.784
   12OSM    O13 1462   2.834   2.022   1.691
   12OSM    O14 1463   2.972   1.816   1.735
   12OSM    O11 1464   2.846   1.920   1.924
   12OSM    O12 1465   3.042   2.037   1.817
   12OSM    C1S 1466   2.858   1.792   1.988
   12OSM    H1S 1467   2.952   1.739   1.961
   12OSM    H1T 1468   2.774   1.726   1.958
   12OSM     NF 1469   2.908   1.691   2.211
   12OSM    HNF 1470   2.856   1.654   2.286
   12OSM    C2S 1471   2.856   1.811   2.143
   12OSM    H2S 1472   2.922   1.896   2.170
   12OSM    C3S 1473   2.710   1.844   2.184
   12OSM    H3S 1474   2.649   1.755   2.159
   12OSM     O3 1475   2.655   1.959   2.121
   12OSM    HO3 1476   2.711   1.974   2.043
   12OSM    C4S 1477   2.704   1.856   2.334
   12OSM    H4S 1478   2.697   1.758   2.383
   12OSM    C5S 1479   2.703   1.965   2.412
   12OSM    H5S 1480   2.701   2.064   2.364
   12OSM    C6S 1481   2.695   1.962   2.563
   12OSM    H6S 1482   2.606   2.021   2.594
   12OSM    H6T 1483   2.785   2.010   2.609
   12OSM    C7S 1484   2.675   1.823   2.625
   12OSM    H7S 1485   2.766   1.760   2.615
   12OSM    H7T 1486   2.592   1.772   2.571
   12OSM    C8S 1487   2.630   1.828   2.771
   12OSM    H8S 1488   2.581   1.731   2.793
   12OSM    H8T 1489   2.553   1.908   2.784
   12OSM    C9S 1490   2.739   1.842   2.876
   12OSM    H9S 1491   2.766   1.950   2.887
   12OSM    H9T 1492   2.830   1.787   2.846
   12OSM   C10S 1493   2.688   1.784   3.009
   12OSM   H10S 1494   2.721   1.679   3.017
   12OSM   H10T 1495   2.576   1.784   3.009
   12OSM   C11S 1496   2.731   1.861   3.134
   12OSM   H11S 1497   2.693   1.806   3.223
   12OSM   H11T 1498   2.684   1.961   3.134
   12OSM   C12S 1499   2.883   1.877   3.144
   12OSM   H12S 1500   2.920   1.937   3.058
   12OSM   H12T 1501   2.933   1.777   3.138
   12OSM   C13S 1502   2.923   1.947   3.273
   12OSM   H13S 1503   2.867   2.043   3.280
   12OSM   H13T 1504   3.031   1.972   3.268
   12OSM   C14S 1505   2.900   1.864   3.400
   12OSM   H14S 1506   2.939   1.761   3.383
   12OSM   H14T 1507   2.791   1.855   3.422
   12OSM   C15S 1508   2.973   1.926   3.519
   12OSM   H15S 1509   3.081   1.934   3.493
   12OSM   H15T 1510   2.966   1.861   3.607
   12OSM   C16S 1511   2.918   2.063   3.559
   12OSM   H16S 1512   2.820   2.049   3.610
   12OSM   H16T 1513   2.900   2.127   3.470
   12OSM   C17S 1514   3.013   2.139   3.651
   12OSM   H17S 1515   2.955   2.224   3.691
   12OSM   H17T 1516   3.099   2.178   3.592
   12OSM   C18S 1517   3.067   2.064   3.771
   12OSM   H18S 1518   3.145   1.992   3.738
   12OSM   H18T 1519   2.984   2.011   3.822
   12OSM   H18U 1520   3.114   2.133   3.845
   12OSM    C1F 1521   3.034   1.649   2.199
   12OSM     OF 1522   3.114   1.701   2.121
   12OSM    C2F 1523   3.075   1.538   2.291
   12OSM    H2F 1524   3.184   1.522   2.282
   12OSM    H2G 1525   3.023   1.445   2.259
   12OSM    C3F 1526   3.039   1.568   2.439
   12OSM    H3F 1527   3.083   1.486   2.500
   12OSM    H3G 1528   2.930   1.565   2.456
   12OSM    C4F 1529   3.095   1.702   2.492
   12OSM    H4F 1530   3.040   1.786   2.444
   12OSM    H4G 1531   3.202   1.709   2.463
   12OSM    C5F 1532   3.084   1.719   2.645
   12OSM    H5F 1533   3.165   1.660   2.693
   12OSM    H5G 1534   2.987   1.676   2.679
   12OSM    C6F 1535   3.089   1.866   2.693
   12OSM    H6F 1536   3.081   1.870   2.804
   12OSM    H6G 1537   2.999   1.916   2.652
   12OSM    C7F 1538   3.212   1.948   2.647
   12OSM    H7F 1539   3.177   2.047   2.611
   12OSM    H7G 1540   3.258   1.897   2.559
   12OSM    C8F 1541   3.322   1.969   2.753
   12OSM    H8F 1542   3.416   1.992   2.699
   12OSM    H8G 1543   3.338   1.871   2.804
   12OSM    C9F 1544   3.294   2.082   2.850
   12OSM    H9F 1545   3.256   2.174   2.804
   12OSM   C10F 1546   3.313   2.079   2.983
   12OSM   H10F 1547   3.290   2.168   3.043
   12OSM   C11F 1548   3.365   1.960   3.060
   12OSM   H11F 1549   3.427   1.993   3.146
   12OSM   H11G 1550   3.433   1.900   2.995
   12OSM   C12F 1551   3.252   1.868   3.109
   12OSM   H12F 1552   3.162   1.879   3.044
   12OSM   H12G 1553   3.222   1.898   3.212
   12OSM   C13F 1554   3.291   1.720   3.106
   12OSM   H13F 1555   3.320   1.696   3.001
   12OSM   H13G 1556   3.203   1.658   3.131
   12OSM   C14F 1557   3.409   1.686   3.198
   12OSM   H14F 1558   3.493   1.755   3.176
   12OSM   H14G 1559   3.444   1.583   3.174
   12OSM   C15F 1560   3.382   1.693   3.349
   12OSM   H15F 1561   3.383   1.799   3.383
   12OSM   H15G 1562   3.465   1.641   3.401
   12OSM   C16F 1563   3.250   1.629   3.394
   12OSM   H16F 1564   3.228   1.538   3.335
   12OSM   H16G 1565   3.168   1.702   3.375
   12OSM   C17F 1566   3.254   1.591   3.542
   12OSM   H17F 1567   3.151   1.601   3.582
   12OSM   H17G 1568   3.317   1.665   3.596
   12OSM   C18F 1569   3.306   1.449   3.567
   12OSM   H18F 1570   3.346   1.440   3.670
   12OSM   H18G 1571   3.388   1.424   3.496
   12OSM   H18H 1572   3.224   1.375   3.555
   13OSM      N 1573   1.491   1.998   1.903
   13OSM    C15 1574   1.354   2.018   1.955
   13OSM   H15A 1575   1.354   2.049   2.059
   13OSM   H15B 1576   1.293   1.929   1.952
   13OSM   H15C 1577   1.303   2.099   1.901
   13OSM    C14 1578   1.481   1.968   1.757
   13OSM   H14A 1579   1.408   2.030   1.708
   13OSM   H14B 1580   1.456   1.863   1.743
   13OSM   H14C 1581   1.579   1.983   1.712
   13OSM    C13 1582   1.562   2.128   1.920
   13OSM   H13A 1583   1.505   2.208   1.877
   13OSM   H13B 1584   1.659   2.126   1.871
   13OSM   H13C 1585   1.579   2.149   2.025
   13OSM    C12 1586   1.566   1.884   1.972
   13OSM   H12A 1587   1.507   1.793   1.965
   13OSM   H12B 1588   1.574   1.908   2.077
   13OSM    C11 1589   1.706   1.845   1.918
   13OSM   H11A 1590   1.760   1.783   1.993
   13OSM   H11B 1591   1.769   1.934   1.901
   13OSM      P 1592   1.638   1.626   1.787
   13OSM    O13 1593   1.494   1.636   1.750
   13OSM    O14 1594   1.728   1.540   1.707
   13OSM    O11 1595   1.644   1.583   1.939
   13OSM    O12 1596   1.695   1.774   1.794
   13OSM    C1S 1597   1.532   1.514   1.997
   13OSM    H1S 1598   1.535   1.407   1.967
   13OSM    H1T 1599   1.434   1.555   1.965
   13OSM     NF 1600   1.459   1.622   2.213
   13OSM    HNF 1601   1.512   1.682   2.271
   13OSM    C2S 1602   1.540   1.517   2.152
   13OSM    H2S 1603   1.499   1.419   2.187
   13OSM    C3S 1604   1.686   1.531   2.202
   13OSM    H3S 1605   1.726   1.631   2.176
   13OSM     O3 1606   1.775   1.433   2.149
   13OSM    HO3 1607   1.769   1.445   2.053
   13OSM    C4S 1608   1.675   1.518   2.352
   13OSM    H4S 1609   1.671   1.414   2.386
   13OSM    C5S 1610   1.672   1.618   2.444
   13OSM    H5S 1611   1.685   1.722   2.410
   13OSM    C6S 1612   1.658   1.600   2.593
   13OSM    H6S 1613   1.608   1.690   2.636
   13OSM    H6T 1614   1.759   1.598   2.638
   13OSM    C7S 1615   1.578   1.476   2.641
   13OSM    H7S 1616   1.617   1.387   2.589
   13OSM    H7T 1617   1.473   1.485   2.607
   13OSM    C8S 1618   1.585   1.453   2.794
   13OSM    H8S 1619   1.576   1.551   2.845
   13OSM    H8T 1620   1.684   1.409   2.819
   13OSM    C9S 1621   1.480   1.356   2.853
   13OSM    H9S 1622   1.478   1.263   2.793
   13OSM    H9T 1623   1.380   1.401   2.846
   13OSM   C10S 1624   1.504   1.318   3.002
   13OSM   H10S 1625   1.594   1.252   3.008
   13OSM   H10T 1626   1.417   1.258   3.036
   13OSM   C11S 1627   1.523   1.438   3.097
   13OSM   H11S 1628   1.439   1.509   3.082
   13OSM   H11T 1629   1.616   1.491   3.073
   13OSM   C12S 1630   1.522   1.401   3.247
   13OSM   H12S 1631   1.594   1.317   3.267
   13OSM   H12T 1632   1.420   1.364   3.272
   13OSM   C13S 1633   1.555   1.520   3.340
   13OSM   H13S 1634   1.485   1.518   3.427
   13OSM   H13T 1635   1.538   1.615   3.285
   13OSM   C14S 1636   1.698   1.517   3.396
   13OSM   H14S 1637   1.767   1.502   3.311
   13OSM   H14T 1638   1.709   1.429   3.463
   13OSM   C15S 1639   1.746   1.644   3.469
   13OSM   H15S 1640   1.752   1.725   3.393
   13OSM   H15T 1641   1.850   1.628   3.506
   13OSM   C16S 1642   1.660   1.693   3.586
   13OSM   H16S 1643   1.553   1.696   3.558
   13OSM   H16T 1644   1.691   1.798   3.607
   13OSM   C17S 1645   1.677   1.615   3.718
   13OSM   H17S 1646   1.675   1.688   3.802
   13OSM   H17T 1647   1.778   1.567   3.719
   13OSM   C18S 1648   1.569   1.510   3.743
   13OSM   H18S 1649   1.566   1.436   3.660
   13OSM   H18T 1650   1.469   1.559   3.750
   13OSM   H18U 1651   1.588   1.456   3.838
   13OSM    C1F 1652   1.327   1.626   2.219
   13OSM     OF 1653   1.256   1.585   2.130
   13OSM    C2F 1654   1.272   1.684   2.344
   13OSM    H2F 1655   1.185   1.749   2.318
   13OSM    H2G 1656   1.350   1.746   2.394
   13OSM    C3F 1657   1.224   1.573   2.440
   13OSM    H3F 1658   1.303   1.496   2.457
   13OSM    H3G 1659   1.137   1.521   2.393
   13OSM    C4F 1660   1.179   1.632   2.574
   13OSM    H4F 1661   1.099   1.569   2.619
   13OSM    H4G 1662   1.140   1.734   2.556
   13OSM    C5F 1663   1.291   1.648   2.676
   13OSM    H5F 1664   1.384   1.682   2.625
   13OSM    H5G 1665   1.309   1.548   2.720
   13OSM    C6F 1666   1.262   1.746   2.790
   13OSM    H6F 1667   1.161   1.724   2.831
   13OSM    H6G 1668   1.263   1.851   2.753
   13OSM    C7F 1669   1.365   1.729   2.901
   13OSM    H7F 1670   1.468   1.745   2.862
   13OSM    H7G 1671   1.360   1.622   2.933
   13OSM    C8F 1672   1.338   1.815   3.025
   13OSM    H8F 1673   1.389   1.765   3.110
   13OSM    H8G 1674   1.230   1.812   3.048
   13OSM    C9F 1675   1.387   1.956   3.005
   13OSM    H9F 1676   1.331   2.013   2.928
   13OSM   C10F 1677   1.489   2.016   3.068
   13OSM   H10F 1678   1.516   2.119   3.037
   13OSM   C11F 1679   1.580   1.956   3.172
   13OSM   H11F 1680   1.662   2.027   3.195
   13OSM   H11G 1681   1.629   1.865   3.128
   13OSM   C12F 1682   1.518   1.911   3.307
   13OSM   H12F 1683   1.601   1.871   3.370
   13OSM   H12G 1684   1.447   1.828   3.291
   13OSM   C13F 1685   1.448   2.018   3.393
   13OSM   H13F 1686   1.380   2.078   3.329
   13OSM   H13G 1687   1.525   2.088   3.433
   13OSM   C14F 1688   1.369   1.950   3.507
   13OSM   H14F 1689   1.425   1.858   3.536
   13OSM   H14G 1690   1.271   1.915   3.468
   13OSM   C15F 1691   1.346   2.028   3.637
   13OSM   H15F 1692   1.296   1.961   3.710
   13OSM   H15G 1693   1.280   2.115   3.623
   13OSM   C16F 1694   1.476   2.079   3.700
   13OSM   H16F 1695   1.507   2.168   3.642
   13OSM   H16G 1696   1.555   2.001   3.692
   13OSM   C17F 1697   1.461   2.119   3.847
   13OSM   H17F 1698   1.557   2.166   3.878
   13OSM   H17G 1699   1.446   2.028   3.909
   13OSM   C18F 1700   1.349   2.219   3.874
   13OSM   H18F 1701   1.344   2.241   3.983
   13OSM   H18G 1702   1.251   2.179   3.842
   13OSM   H18H 1703   1.368   2.314   3.820
   14OSM      N 1704   1.956   0.961   1.903
   14OSM    C15 1705   2.000   0.928   2.042
   14OSM   H15A 1706   1.915   0.909   2.107
   14OSM   H15B 1707   2.056   1.013   2.081
   14OSM   H15C 1708   2.063   0.840   2.041
   14OSM    C14 1709   2.072   0.956   1.808
   14OSM   H14A 1710   2.145   1.032   1.838
   14OSM   H14B 1711   2.039   0.982   1.708
   14OSM   H14C 1712   2.121   0.861   1.803
   14OSM    C13 1713   1.849   0.866   1.857
   14OSM   H13A 1714   1.763   0.868   1.923
   14OSM   H13B 1715   1.887   0.765   1.852
   14OSM   H13C 1716   1.811   0.895   1.759
   14OSM    C12 1717   1.903   1.103   1.898
   14OSM   H12A 1718   1.802   1.107   1.936
   14OSM   H12B 1719   1.890   1.131   1.794
   14OSM    C11 1720   1.982   1.218   1.966
   14OSM   H11A 1721   1.982   1.204   2.076
   14OSM   H11B 1722   1.924   1.312   1.947
   14OSM      P 1723   2.187   1.367   1.898
   14OSM    O13 1724   2.319   1.335   1.839
   14OSM    O14 1725   2.103   1.464   1.824
   14OSM    O11 1726   2.215   1.412   2.047
   14OSM    O12 1727   2.114   1.225   1.915
   14OSM    C1S 1728   2.249   1.312   2.145
   14OSM    H1S 1729   2.357   1.289   2.140
   14OSM    H1T 1730   2.194   1.216   2.131
   14OSM     NF 1731   2.217   1.254   2.387
   14OSM    HNF 1732   2.152   1.269   2.461
   14OSM    C2S 1733   2.212   1.361   2.286
   14OSM    H2S 1734   2.286   1.438   2.317
   14OSM    C3S 1735   2.069   1.427   2.288
   14OSM    H3S 1736   1.998   1.354   2.243
   14OSM     O3 1737   2.055   1.551   2.220
   14OSM    HO3 1738   2.119   1.548   2.148
   14OSM    C4S 1739   2.033   1.450   2.431
   14OSM    H4S 1740   2.066   1.547   2.470
   14OSM    C5S 1741   1.963   1.362   2.506
   14OSM    H5S 1742   1.928   1.269   2.458
   14OSM    C6S 1743   1.926   1.378   2.650
   14OSM    H6S 1744   1.956   1.288   2.707
   14OSM    H6T 1745   1.816   1.385   2.658
   14OSM    C7S 1746   1.992   1.500   2.717
   14OSM    H7S 1747   1.975   1.592   2.656
   14OSM    H7T 1748   2.101   1.480   2.720
   14OSM    C8S 1749   1.942   1.533   2.858
   14OSM    H8S 1750   1.832   1.544   2.858
   14OSM    H8T 1751   1.982   1.633   2.888
   14OSM    C9S 1752   1.985   1.433   2.966
   14OSM    H9S 1753   2.073   1.476   3.018
   14OSM    H9T 1754   2.014   1.336   2.919
   14OSM   C10S 1755   1.877   1.406   3.071
   14OSM   H10S 1756   1.794   1.353   3.021
   14OSM   H10T 1757   1.839   1.505   3.107
   14OSM   C11S 1758   1.925   1.324   3.192
   14OSM   H11S 1759   1.963   1.225   3.158
   14OSM   H11T 1760   1.836   1.305   3.256
   14OSM   C12S 1761   2.033   1.394   3.275
   14OSM   H12S 1762   2.020   1.504   3.264
   14OSM   H12T 1763   2.133   1.369   3.234
   14OSM   C13S 1764   2.030   1.364   3.427
   14OSM   H13S 1765   1.948   1.424   3.472
   14OSM   H13T 1766   2.125   1.400   3.472
   14OSM   C14S 1767   2.009   1.216   3.465
   14OSM   H14S 1768   2.097   1.158   3.430
   14OSM   H14T 1769   1.919   1.175   3.416
   14OSM   C15S 1770   1.992   1.197   3.617
   14OSM   H15S 1771   2.073   1.252   3.670
   14OSM   H15T 1772   2.004   1.089   3.641
   14OSM   C16S 1773   1.854   1.241   3.670
   14OSM   H16S 1774   1.777   1.177   3.621
   14OSM   H16T 1775   1.835   1.346   3.641
   14OSM   C17S 1776   1.839   1.229   3.822
   14OSM   H17S 1777   1.865   1.126   3.855
   14OSM   H17T 1778   1.731   1.246   3.848
   14OSM   C18S 1779   1.922   1.331   3.900
   14OSM   H18S 1780   1.902   1.322   4.009
   14OSM   H18T 1781   1.897   1.435   3.869
   14OSM   H18U 1782   2.031   1.315   3.882
   14OSM    C1F 1783   2.292   1.146   2.402
   14OSM     OF 1784   2.390   1.124   2.332
   14OSM    C2F 1785   2.233   1.046   2.501
   14OSM    H2F 1786   2.182   0.968   2.440
   14OSM    H2G 1787   2.155   1.098   2.559
   14OSM    C3F 1788   2.326   0.973   2.601
   14OSM    H3F 1789   2.408   0.922   2.546
   14OSM    H3G 1790   2.266   0.893   2.650
   14OSM    C4F 1791   2.388   1.058   2.713
   14OSM    H4F 1792   2.456   1.131   2.666
   14OSM    H4G 1793   2.453   0.993   2.777
   14OSM    C5F 1794   2.294   1.134   2.809
   14OSM    H5F 1795   2.276   1.070   2.898
   14OSM    H5G 1796   2.195   1.154   2.764
   14OSM    C6F 1797   2.358   1.267   2.852
   14OSM    H6F 1798   2.330   1.345   2.778
   14OSM    H6G 1799   2.468   1.254   2.844
   14OSM    C7F 1800   2.329   1.320   2.993
   14OSM    H7F 1801   2.224   1.352   2.998
   14OSM    H7G 1802   2.392   1.410   3.010
   14OSM    C8F 1803   2.351   1.222   3.110
   14OSM    H8F 1804   2.267   1.150   3.112
   14OSM    H8G 1805   2.348   1.280   3.205
   14OSM    C9F 1806   2.484   1.153   3.098
   14OSM    H9F 1807   2.561   1.209   3.043
   14OSM   C10F 1808   2.512   1.031   3.145
   14OSM   H10F 1809   2.610   0.987   3.124
   14OSM   C11F 1810   2.413   0.945   3.217
   14OSM   H11F 1811   2.455   0.843   3.221
   14OSM   H11G 1812   2.320   0.935   3.156
   14OSM   C12F 1813   2.366   0.989   3.359
   14OSM   H12F 1814   2.284   0.919   3.389
   14OSM   H12G 1815   2.321   1.090   3.355
   14OSM   C13F 1816   2.473   0.985   3.470
   14OSM   H13F 1817   2.521   1.085   3.476
   14OSM   H13G 1818   2.552   0.912   3.444
   14OSM   C14F 1819   2.417   0.949   3.609
   14OSM   H14F 1820   2.503   0.947   3.681
   14OSM   H14G 1821   2.373   0.847   3.607
   14OSM   C15F 1822   2.311   1.048   3.662
   14OSM   H15F 1823   2.215   1.029   3.610
   14OSM   H15G 1824   2.344   1.151   3.636
   14OSM   C16F 1825   2.292   1.041   3.815
   14OSM   H16F 1826   2.246   1.135   3.851
   14OSM   H16G 1827   2.391   1.031   3.863
   14OSM   C17F 1828   2.202   0.925   3.860
   14OSM   H17F 1829   2.217   0.839   3.791
   14OSM   H17G 1830   2.097   0.960   3.850
   14OSM   C18F 1831   2.222   0.876   4.003
   14OSM   H18F 1832   2.224   0.961   4.074
   14OSM   H18G 1833   2.318   0.821   4.011
   14OSM   H18H 1834   2.141   0.807   4.032
   15OSM      N 1835   0.926   1.860   1.753
   15OSM    C15 1836   0.926   1.776   1.628
   15OSM   H15A 1837   0.884   1.678   1.648
   15OSM   H15B 1838   1.026   1.764   1.589
   15OSM   H15C 1839   0.865   1.823   1.551
   15OSM    C14 1840   1.010   1.792   1.855
   15OSM   H14A 1841   1.107   1.764   1.817
   15OSM   H14B 1842   0.959   1.699   1.885
   15OSM   H14C 1843   1.023   1.850   1.945
   15OSM    C13 1844   0.983   1.994   1.719
   15OSM   H13A 1845   0.918   2.052   1.654
   15OSM   H13B 1846   1.078   1.980   1.669
   15OSM   H13C 1847   1.000   2.057   1.805
   15OSM    C12 1848   0.783   1.873   1.802
   15OSM   H12A 1849   0.723   1.925   1.728
   15OSM   H12B 1850   0.780   1.935   1.891
   15OSM    C11 1851   0.709   1.741   1.832
   15OSM   H11A 1852   0.707   1.680   1.738
   15OSM   H11B 1853   0.604   1.764   1.857
   15OSM      P 1854   0.770   1.516   1.942
   15OSM    O13 1855   0.651   1.467   1.870
   15OSM    O14 1856   0.903   1.470   1.896
   15OSM    O11 1857   0.752   1.478   2.094
   15OSM    O12 1858   0.769   1.674   1.943
   15OSM    C1S 1859   0.798   1.566   2.196
   15OSM    H1S 1860   0.748   1.664   2.185
   15OSM    H1T 1861   0.909   1.581   2.190
   15OSM     NF 1862   0.821   1.590   2.438
   15OSM    HNF 1863   0.890   1.550   2.497
   15OSM    C2S 1864   0.764   1.506   2.335
   15OSM    H2S 1865   0.654   1.504   2.349
   15OSM    C3S 1866   0.818   1.359   2.337
   15OSM    H3S 1867   0.920   1.357   2.292
   15OSM     O3 1868   0.737   1.270   2.261
   15OSM    HO3 1869   0.700   1.330   2.194
   15OSM    C4S 1870   0.826   1.305   2.478
   15OSM    H4S 1871   0.731   1.309   2.533
   15OSM    C5S 1872   0.935   1.254   2.538
   15OSM    H5S 1873   1.030   1.246   2.483
   15OSM    C6S 1874   0.939   1.200   2.680
   15OSM    H6S 1875   1.027   1.134   2.694
   15OSM    H6T 1876   0.851   1.135   2.697
   15OSM    C7S 1877   0.942   1.309   2.789
   15OSM    H7S 1878   0.881   1.275   2.876
   15OSM    H7T 1879   0.895   1.403   2.753
   15OSM    C8S 1880   1.084   1.337   2.840
   15OSM    H8S 1881   1.149   1.356   2.751
   15OSM    H8T 1882   1.125   1.247   2.891
   15OSM    C9S 1883   1.094   1.458   2.934
   15OSM    H9S 1884   1.028   1.540   2.899
   15OSM    H9T 1885   1.199   1.494   2.926
   15OSM   C10S 1886   1.070   1.426   3.082
   15OSM   H10S 1887   1.124   1.332   3.106
   15OSM   H10T 1888   0.962   1.410   3.102
   15OSM   C11S 1889   1.126   1.536   3.174
   15OSM   H11S 1890   1.060   1.626   3.171
   15OSM   H11T 1891   1.226   1.567   3.136
   15OSM   C12S 1892   1.145   1.491   3.320
   15OSM   H12S 1893   1.210   1.567   3.371
   15OSM   H12T 1894   1.200   1.394   3.322
   15OSM   C13S 1895   1.015   1.478   3.399
   15OSM   H13S 1896   0.957   1.390   3.361
   15OSM   H13T 1897   0.953   1.569   3.383
   15OSM   C14S 1898   1.042   1.460   3.549
   15OSM   H14S 1899   1.115   1.538   3.581
   15OSM   H14T 1900   1.090   1.361   3.565
   15OSM   C15S 1901   0.919   1.472   3.641
   15OSM   H15S 1902   0.883   1.577   3.640
   15OSM   H15T 1903   0.952   1.448   3.745
   15OSM   C16S 1904   0.799   1.385   3.603
   15OSM   H16S 1905   0.828   1.278   3.600
   15OSM   H16T 1906   0.765   1.414   3.501
   15OSM   C17S 1907   0.682   1.406   3.699
   15OSM   H17S 1908   0.589   1.364   3.655
   15OSM   H17T 1909   0.665   1.516   3.709
   15OSM   C18S 1910   0.702   1.346   3.839
   15OSM   H18S 1911   0.621   1.380   3.906
   15OSM   H18T 1912   0.799   1.377   3.883
   15OSM   H18U 1913   0.700   1.235   3.834
   15OSM    C1F 1914   0.792   1.719   2.452
   15OSM     OF 1915   0.702   1.774   2.390
   15OSM    C2F 1916   0.895   1.789   2.532
   15OSM    H2F 1917   0.977   1.818   2.463
   15OSM    H2G 1918   0.933   1.716   2.607
   15OSM    C3F 1919   0.855   1.914   2.612
   15OSM    H3F 1920   0.780   1.886   2.689
   15OSM    H3G 1921   0.811   1.991   2.545
   15OSM    C4F 1922   0.985   1.964   2.677
   15OSM    H4F 1923   1.046   2.017   2.601
   15OSM    H4G 1924   1.044   1.876   2.709
   15OSM    C5F 1925   0.963   2.052   2.799
   15OSM    H5F 1926   0.854   2.066   2.811
   15OSM    H5G 1927   1.011   2.151   2.781
   15OSM    C6F 1928   1.010   1.992   2.931
   15OSM    H6F 1929   1.092   1.919   2.916
   15OSM    H6G 1930   0.922   1.937   2.974
   15OSM    C7F 1931   1.057   2.100   3.029
   15OSM    H7F 1932   1.019   2.200   2.998
   15OSM    H7G 1933   1.168   2.107   3.024
   15OSM    C8F 1934   1.008   2.071   3.171
   15OSM    H8F 1935   0.958   1.973   3.173
   15OSM    H8G 1936   0.932   2.146   3.195
   15OSM    C9F 1937   1.112   2.073   3.279
   15OSM    H9F 1938   1.186   1.992   3.269
   15OSM   C10F 1939   1.118   2.157   3.384
   15OSM   H10F 1940   1.205   2.146   3.448
   15OSM   C11F 1941   1.027   2.270   3.426
   15OSM   H11F 1942   0.932   2.270   3.370
   15OSM   H11G 1943   1.078   2.366   3.401
   15OSM   C12F 1944   0.992   2.273   3.577
   15OSM   H12F 1945   1.003   2.378   3.613
   15OSM   H12G 1946   1.065   2.211   3.633
   15OSM   C13F 1947   0.848   2.231   3.608
   15OSM   H13F 1948   0.830   2.129   3.568
   15OSM   H13G 1949   0.777   2.300   3.556
   15OSM   C14F 1950   0.808   2.234   3.757
   15OSM   H14F 1951   0.717   2.170   3.766
   15OSM   H14G 1952   0.779   2.337   3.787
   15OSM   C15F 1953   0.915   2.184   3.856
   15OSM   H15F 1954   0.973   2.273   3.889
   15OSM   H15G 1955   0.987   2.116   3.805
   15OSM   C16F 1956   0.859   2.111   3.979
   15OSM   H16F 1957   0.865   2.001   3.964
   15OSM   H16G 1958   0.752   2.137   3.993
   15OSM   C17F 1959   0.932   2.147   4.109
   15OSM   H17F 1960   0.878   2.101   4.195
   15OSM   H17G 1961   0.927   2.258   4.120
   15OSM   C18F 1962   1.079   2.106   4.114
   15OSM   H18F 1963   1.128   2.148   4.205
   15OSM   H18G 1964   1.133   2.145   4.025
   15OSM   H18H 1965   1.090   1.996   4.116
   16OSM      N 1966   3.535   0.782   1.864
   16OSM    C15 1967   3.640   0.866   1.799
   16OSM   H15A 1968   3.610   0.894   1.699
   16OSM   H15B 1969   3.734   0.813   1.788
   16OSM   H15C 1970   3.660   0.956   1.856
   16OSM    C14 1971   3.526   0.651   1.793
   16OSM   H14A 1972   3.436   0.597   1.825
   16OSM   H14B 1973   3.610   0.588   1.817
   16OSM   H14C 1974   3.516   0.664   1.687
   16OSM    C13 1975   3.576   0.757   2.006
   16OSM   H13A 1976   3.578   0.848   2.064
   16OSM   H13B 1977   3.674   0.712   2.010
   16OSM   H13C 1978   3.507   0.687   2.053
   16OSM    C12 1979   3.399   0.850   1.856
   16OSM   H12A 1980   3.372   0.860   1.752
   16OSM   H12B 1981   3.408   0.950   1.897
   16OSM    C11 1982   3.277   0.778   1.920
   16OSM   H11A 1983   3.190   0.848   1.912
   16OSM   H11B 1984   3.294   0.760   2.029
   16OSM      P 1985   3.108   0.584   1.871
   16OSM    O13 1986   3.003   0.688   1.871
   16OSM    O14 1987   3.098   0.484   1.763
   16OSM    O11 1988   3.117   0.517   2.015
   16OSM    O12 1989   3.250   0.654   1.854
   16OSM    C1S 1990   3.242   0.468   2.066
   16OSM    H1S 1991   3.326   0.537   2.042
   16OSM    H1T 1992   3.263   0.368   2.021
   16OSM     NF 1993   3.379   0.470   2.274
   16OSM    HNF 1994   3.434   0.387   2.281
   16OSM    C2S 1995   3.243   0.456   2.222
   16OSM    H2S 1996   3.180   0.540   2.261
   16OSM    C3S 1997   3.181   0.323   2.272
   16OSM    H3S 1998   3.239   0.239   2.228
   16OSM     O3 1999   3.045   0.299   2.242
   16OSM    HO3 2000   3.021   0.363   2.174
   16OSM    C4S 2001   3.195   0.320   2.422
   16OSM    H4S 2002   3.154   0.409   2.473
   16OSM    C5S 2003   3.255   0.224   2.494
   16OSM    H5S 2004   3.296   0.137   2.439
   16OSM    C6S 2005   3.271   0.219   2.644
   16OSM    H6S 2006   3.379   0.211   2.669
   16OSM    H6T 2007   3.222   0.125   2.676
   16OSM    C7S 2008   3.211   0.330   2.732
   16OSM    H7S 2009   3.113   0.360   2.696
   16OSM    H7T 2010   3.272   0.422   2.727
   16OSM    C8S 2011   3.192   0.293   2.880
   16OSM    H8S 2012   3.149   0.191   2.890
   16OSM    H8T 2013   3.116   0.365   2.921
   16OSM    C9S 2014   3.318   0.306   2.965
   16OSM    H9S 2015   3.345   0.414   2.973
   16OSM    H9T 2016   3.402   0.253   2.914
   16OSM   C10S 2017   3.302   0.251   3.107
   16OSM   H10S 2018   3.385   0.289   3.169
   16OSM   H10T 2019   3.313   0.140   3.101
   16OSM   C11S 2020   3.167   0.284   3.172
   16OSM   H11S 2021   3.159   0.229   3.268
   16OSM   H11T 2022   3.085   0.246   3.108
   16OSM   C12S 2023   3.144   0.433   3.199
   16OSM   H12S 2024   3.038   0.444   3.230
   16OSM   H12T 2025   3.156   0.491   3.105
   16OSM   C13S 2026   3.234   0.495   3.307
   16OSM   H13S 2027   3.193   0.596   3.329
   16OSM   H13T 2028   3.337   0.509   3.268
   16OSM   C14S 2029   3.243   0.411   3.436
   16OSM   H14S 2030   3.305   0.321   3.415
   16OSM   H14T 2031   3.142   0.375   3.463
   16OSM   C15S 2032   3.304   0.486   3.554
   16OSM   H15S 2033   3.402   0.524   3.523
   16OSM   H15T 2034   3.322   0.416   3.638
   16OSM   C16S 2035   3.218   0.604   3.603
   16OSM   H16S 2036   3.146   0.633   3.525
   16OSM   H16T 2037   3.281   0.694   3.619
   16OSM   C17S 2038   3.146   0.572   3.733
   16OSM   H17S 2039   3.115   0.465   3.733
   16OSM   H17T 2040   3.052   0.632   3.739
   16OSM   C18S 2041   3.232   0.602   3.856
   16OSM   H18S 2042   3.269   0.706   3.853
   16OSM   H18T 2043   3.319   0.533   3.860
   16OSM   H18U 2044   3.172   0.589   3.947
   16OSM    C1F 2045   3.430   0.588   2.310
   16OSM     OF 2046   3.374   0.692   2.277
   16OSM    C2F 2047   3.561   0.588   2.382
   16OSM    H2F 2048   3.630   0.659   2.331
   16OSM    H2G 2049   3.603   0.486   2.377
   16OSM    C3F 2050   3.553   0.628   2.531
   16OSM    H3F 2051   3.509   0.730   2.545
   16OSM    H3G 2052   3.657   0.630   2.572
   16OSM    C4F 2053   3.477   0.527   2.617
   16OSM    H4F 2054   3.509   0.424   2.587
   16OSM    H4G 2055   3.369   0.537   2.594
   16OSM    C5F 2056   3.505   0.541   2.768
   16OSM    H5F 2057   3.615   0.547   2.782
   16OSM    H5G 2058   3.474   0.447   2.817
   16OSM    C6F 2059   3.440   0.661   2.838
   16OSM    H6F 2060   3.487   0.751   2.793
   16OSM    H6G 2061   3.466   0.657   2.946
   16OSM    C7F 2062   3.286   0.673   2.828
   16OSM    H7F 2063   3.238   0.583   2.871
   16OSM    H7G 2064   3.257   0.677   2.721
   16OSM    C8F 2065   3.224   0.796   2.899
   16OSM    H8F 2066   3.194   0.765   3.002
   16OSM    H8G 2067   3.131   0.824   2.846
   16OSM    C9F 2068   3.322   0.911   2.903
   16OSM    H9F 2069   3.347   0.952   2.804
   16OSM   C10F 2070   3.382   0.962   3.012
   16OSM   H10F 2071   3.456   1.042   2.999
   16OSM   C11F 2072   3.363   0.915   3.155
   16OSM   H11F 2073   3.260   0.877   3.171
   16OSM   H11G 2074   3.374   1.004   3.221
   16OSM   C12F 2075   3.457   0.805   3.210
   16OSM   H12F 2076   3.558   0.817   3.166
   16OSM   H12G 2077   3.419   0.705   3.177
   16OSM   C13F 2078   3.470   0.809   3.364
   16OSM   H13F 2079   3.372   0.788   3.411
   16OSM   H13G 2080   3.500   0.913   3.393
   16OSM   C14F 2081   3.576   0.712   3.417
   16OSM   H14F 2082   3.665   0.719   3.350
   16OSM   H14G 2083   3.541   0.608   3.408
   16OSM   C15F 2084   3.627   0.741   3.560
   16OSM   H15F 2085   3.676   0.841   3.560
   16OSM   H15G 2086   3.705   0.663   3.581
   16OSM   C16F 2087   3.531   0.742   3.681
   16OSM   H16F 2088   3.478   0.646   3.687
   16OSM   H16G 2089   3.457   0.823   3.669
   16OSM   C17F 2090   3.611   0.762   3.811
   16OSM   H17F 2091   3.663   0.860   3.806
   16OSM   H17G 2092   3.688   0.683   3.814
   16OSM   C18F 2093   3.534   0.755   3.944
   16OSM   H18F 2094   3.605   0.762   4.029
   16OSM   H18G 2095   3.482   0.658   3.953
   16OSM   H18H 2096   3.460   0.837   3.952
   17OSM      N 2097   3.667   4.723   1.876
   17OSM    C15 2098   3.681   4.717   2.024
   17OSM   H15A 2099   3.667   4.816   2.068
   17OSM   H15B 2100   3.777   4.681   2.055
   17OSM   H15C 2101   3.601   4.656   2.068
   17OSM    C14 2102   3.548   4.810   1.857
   17OSM   H14A 2103   3.457   4.758   1.889
   17OSM   H14B 2104   3.530   4.839   1.755
   17OSM   H14C 2105   3.556   4.902   1.913
   17OSM    C13 2106   3.786   4.790   1.815
   17OSM   H13A 2107   3.877   4.732   1.820
   17OSM   H13B 2108   3.803   4.886   1.862
   17OSM   H13C 2109   3.768   4.814   1.710
   17OSM    C12 2110   3.644   4.586   1.813
   17OSM   H12A 2111   3.736   4.531   1.820
   17OSM   H12B 2112   3.618   4.598   1.708
   17OSM    C11 2113   3.534   4.496   1.872
   17OSM   H11A 2114   3.559   4.475   1.979
   17OSM   H11B 2115   3.539   4.397   1.819
   17OSM      P 2116   3.284   4.458   1.905
   17OSM    O13 2117   3.154   4.528   1.898
   17OSM    O14 2118   3.295   4.338   1.819
   17OSM    O11 2119   3.331   4.433   2.056
   17OSM    O12 2120   3.403   4.555   1.858
   17OSM    C1S 2121   3.357   4.541   2.145
   17OSM    H1S 2122   3.260   4.591   2.166
   17OSM    H1T 2123   3.425   4.618   2.101
   17OSM     NF 2124   3.559   4.514   2.305
   17OSM    HNF 2125   3.612   4.430   2.300
   17OSM    C2S 2126   3.414   4.497   2.286
   17OSM    H2S 2127   3.363   4.563   2.360
   17OSM    C3S 2128   3.377   4.349   2.318
   17OSM    H3S 2129   3.440   4.281   2.257
   17OSM     O3 2130   3.241   4.313   2.301
   17OSM    HO3 2131   3.237   4.280   2.210
   17OSM    C4S 2132   3.407   4.326   2.464
   17OSM    H4S 2133   3.381   4.414   2.525
   17OSM    C5S 2134   3.458   4.217   2.524
   17OSM    H5S 2135   3.477   4.127   2.464
   17OSM    C6S 2136   3.483   4.206   2.673
   17OSM    H6S 2137   3.590   4.183   2.692
   17OSM    H6T 2138   3.428   4.116   2.709
   17OSM    C7S 2139   3.439   4.324   2.765
   17OSM    H7S 2140   3.339   4.362   2.735
   17OSM    H7T 2141   3.509   4.409   2.752
   17OSM    C8S 2142   3.431   4.285   2.914
   17OSM    H8S 2143   3.528   4.243   2.941
   17OSM    H8T 2144   3.360   4.200   2.924
   17OSM    C9S 2145   3.395   4.400   3.010
   17OSM    H9S 2146   3.290   4.432   2.992
   17OSM    H9T 2147   3.459   4.487   2.985
   17OSM   C10S 2148   3.413   4.368   3.161
   17OSM   H10S 2149   3.517   4.333   3.177
   17OSM   H10T 2150   3.346   4.284   3.190
   17OSM   C11S 2151   3.390   4.487   3.257
   17OSM   H11S 2152   3.281   4.507   3.259
   17OSM   H11T 2153   3.441   4.578   3.219
   17OSM   C12S 2154   3.436   4.462   3.404
   17OSM   H12S 2155   3.426   4.354   3.426
   17OSM   H12T 2156   3.365   4.515   3.472
   17OSM   C13S 2157   3.578   4.512   3.438
   17OSM   H13S 2158   3.570   4.619   3.463
   17OSM   H13T 2159   3.638   4.505   3.344
   17OSM   C14S 2160   3.659   4.440   3.550
   17OSM   H14S 2161   3.765   4.464   3.530
   17OSM   H14T 2162   3.652   4.331   3.539
   17OSM   C15S 2163   3.640   4.474   3.699
   17OSM   H15S 2164   3.532   4.477   3.725
   17OSM   H15T 2165   3.683   4.574   3.720
   17OSM   C16S 2166   3.711   4.367   3.785
   17OSM   H16S 2167   3.780   4.310   3.718
   17OSM   H16T 2168   3.639   4.293   3.824
   17OSM   C17S 2169   3.795   4.416   3.904
   17OSM   H17S 2170   3.846   4.511   3.878
   17OSM   H17T 2171   3.874   4.340   3.925
   17OSM   C18S 2172   3.713   4.433   4.032
   17OSM   H18S 2173   3.779   4.459   4.118
   17OSM   H18T 2174   3.658   4.340   4.056
   17OSM   H18U 2175   3.640   4.515   4.017
   17OSM    C1F 2176   3.617   4.634   2.318
   17OSM     OF 2177   3.556   4.735   2.292
   17OSM    C2F 2178   3.763   4.640   2.354
   17OSM    H2F 2179   3.811   4.712   2.283
   17OSM    H2G 2180   3.810   4.541   2.339
   17OSM    C3F 2181   3.792   4.692   2.497
   17OSM    H3F 2182   3.767   4.613   2.570
   17OSM    H3G 2183   3.728   4.781   2.519
   17OSM    C4F 2184   3.940   4.735   2.513
   17OSM    H4F 2185   3.950   4.839   2.472
   17OSM    H4G 2186   4.005   4.669   2.452
   17OSM    C5F 2187   3.996   4.733   2.657
   17OSM    H5F 2188   4.094   4.786   2.658
   17OSM    H5G 2189   4.016   4.628   2.688
   17OSM    C6F 2190   3.905   4.798   2.762
   17OSM    H6F 2191   3.808   4.743   2.762
   17OSM    H6G 2192   3.883   4.904   2.733
   17OSM    C7F 2193   3.962   4.794   2.904
   17OSM    H7F 2194   4.045   4.868   2.914
   17OSM    H7G 2195   4.005   4.693   2.923
   17OSM    C8F 2196   3.852   4.824   3.008
   17OSM    H8F 2197   3.764   4.763   2.979
   17OSM    H8G 2198   3.823   4.930   2.999
   17OSM    C9F 2199   3.889   4.792   3.151
   17OSM    H9F 2200   3.995   4.771   3.171
   17OSM   C10F 2201   3.801   4.788   3.252
   17OSM   H10F 2202   3.836   4.761   3.353
   17OSM   C11F 2203   3.652   4.815   3.241
   17OSM   H11F 2204   3.595   4.735   3.293
   17OSM   H11G 2205   3.618   4.811   3.135
   17OSM   C12F 2206   3.610   4.951   3.299
   17OSM   H12F 2207   3.500   4.961   3.289
   17OSM   H12G 2208   3.655   5.031   3.237
   17OSM   C13F 2209   3.648   4.978   3.446
   17OSM   H13F 2210   3.601   5.073   3.477
   17OSM   H13G 2211   3.759   4.991   3.453
   17OSM   C14F 2212   3.605   4.871   3.548
   17OSM   H14F 2213   3.643   4.902   3.648
   17OSM   H14G 2214   3.658   4.777   3.525
   17OSM   C15F 2215   3.452   4.854   3.556
   17OSM   H15F 2216   3.411   4.826   3.456
   17OSM   H15G 2217   3.412   4.955   3.582
   17OSM   C16F 2218   3.397   4.757   3.662
   17OSM   H16F 2219   3.419   4.652   3.635
   17OSM   H16G 2220   3.287   4.768   3.665
   17OSM   C17F 2221   3.452   4.786   3.802
   17OSM   H17F 2222   3.433   4.893   3.824
   17OSM   H17G 2223   3.561   4.768   3.801
   17OSM   C18F 2224   3.389   4.705   3.915
   17OSM   H18F 2225   3.414   4.598   3.903
   17OSM   H18G 2226   3.430   4.740   4.012
   17OSM   H18H 2227   3.279   4.718   3.917
   18OSM      N 2228   2.850   4.783   1.891
   18OSM    C15 2229   2.708   4.761   1.855
   18OSM   H15A 2230   2.663   4.692   1.926
   18OSM   H15B 2231   2.704   4.715   1.756
   18OSM   H15C 2232   2.650   4.853   1.852
   18OSM    C14 2233   2.863   4.852   2.024
   18OSM   H14A 2234   2.830   4.954   2.019
   18OSM   H14B 2235   2.968   4.855   2.051
   18OSM   H14C 2236   2.807   4.799   2.099
   18OSM    C13 2237   2.919   4.653   1.906
   18OSM   H13A 2238   2.884   4.595   1.991
   18OSM   H13B 2239   3.025   4.668   1.929
   18OSM   H13C 2240   2.918   4.591   1.817
   18OSM    C12 2241   2.919   4.861   1.781
   18OSM   H12A 2242   2.886   4.964   1.784
   18OSM   H12B 2243   2.885   4.824   1.684
   18OSM    C11 2244   3.074   4.865   1.779
   18OSM   H11A 2245   3.103   4.932   1.694
   18OSM   H11B 2246   3.115   4.764   1.758
   18OSM      P 2247   3.252   4.991   1.927
   18OSM    O13 2248   3.338   4.985   1.807
   18OSM    O14 2249   3.209   5.125   1.972
   18OSM    O11 2250   3.311   4.913   2.050
   18OSM    O12 2251   3.119   4.911   1.905
   18OSM    C1S 2252   3.219   4.898   2.162
   18OSM    H1S 2253   3.172   4.797   2.154
   18OSM    H1T 2254   3.136   4.974   2.165
   18OSM     NF 2255   3.182   4.898   2.404
   18OSM    HNF 2256   3.147   4.982   2.443
   18OSM    C2S 2257   3.285   4.910   2.302
   18OSM    H2S 2258   3.356   4.826   2.313
   18OSM    C3S 2259   3.364   5.043   2.317
   18OSM    H3S 2260   3.293   5.128   2.311
   18OSM     O3 2261   3.459   5.058   2.214
   18OSM    HO3 2262   3.436   4.985   2.153
   18OSM    C4S 2263   3.434   5.048   2.451
   18OSM    H4S 2264   3.540   5.019   2.448
   18OSM    C5S 2265   3.379   5.088   2.569
   18OSM    H5S 2266   3.274   5.119   2.570
   18OSM    C6S 2267   3.449   5.094   2.702
   18OSM    H6S 2268   3.433   5.194   2.749
   18OSM    H6T 2269   3.558   5.085   2.687
   18OSM    C7S 2270   3.412   4.987   2.808
   18OSM    H7S 2271   3.470   5.009   2.901
   18OSM    H7T 2272   3.446   4.888   2.771
   18OSM    C8S 2273   3.264   4.979   2.846
   18OSM    H8S 2274   3.251   4.900   2.924
   18OSM    H8T 2275   3.205   4.949   2.757
   18OSM    C9S 2276   3.205   5.110   2.899
   18OSM    H9S 2277   3.215   5.185   2.818
   18OSM    H9T 2278   3.266   5.147   2.984
   18OSM   C10S 2279   3.056   5.102   2.935
   18OSM   H10S 2280   3.004   5.039   2.859
   18OSM   H10T 2281   3.011   5.204   2.930
   18OSM   C11S 2282   3.031   5.047   3.076
   18OSM   H11S 2283   3.092   4.956   3.091
   18OSM   H11T 2284   2.924   5.017   3.085
   18OSM   C12S 2285   3.063   5.150   3.184
   18OSM   H12S 2286   2.989   5.233   3.182
   18OSM   H12T 2287   3.162   5.193   3.160
   18OSM   C13S 2288   3.073   5.092   3.326
   18OSM   H13S 2289   3.142   5.005   3.322
   18OSM   H13T 2290   2.975   5.055   3.361
   18OSM   C14S 2291   3.131   5.196   3.422
   18OSM   H14S 2292   3.059   5.279   3.439
   18OSM   H14T 2293   3.222   5.240   3.374
   18OSM   C15S 2294   3.179   5.138   3.555
   18OSM   H15S 2295   3.246   5.211   3.604
   18OSM   H15T 2296   3.238   5.046   3.534
   18OSM   C16S 2297   3.067   5.101   3.652
   18OSM   H16S 2298   2.994   5.033   3.602
   18OSM   H16T 2299   3.012   5.193   3.683
   18OSM   C17S 2300   3.122   5.031   3.777
   18OSM   H17S 2301   3.177   4.939   3.746
   18OSM   H17T 2302   3.037   4.999   3.840
   18OSM   C18S 2303   3.215   5.117   3.864
   18OSM   H18S 2304   3.166   5.214   3.888
   18OSM   H18T 2305   3.311   5.138   3.812
   18OSM   H18U 2306   3.238   5.064   3.959
   18OSM    C1F 2307   3.135   4.780   2.441
   18OSM     OF 2308   3.163   4.679   2.379
   18OSM    C2F 2309   3.046   4.777   2.560
   18OSM    H2F 2310   2.951   4.727   2.531
   18OSM    H2G 2311   3.023   4.881   2.593
   18OSM    C3F 2312   3.108   4.698   2.677
   18OSM    H3F 2313   3.202   4.745   2.713
   18OSM    H3G 2314   3.136   4.596   2.641
   18OSM    C4F 2315   3.009   4.686   2.793
   18OSM    H4F 2316   2.912   4.647   2.753
   18OSM    H4G 2317   2.990   4.787   2.835
   18OSM    C5F 2318   3.055   4.591   2.903
   18OSM    H5F 2319   3.151   4.626   2.947
   18OSM    H5G 2320   3.073   4.490   2.858
   18OSM    C6F 2321   2.950   4.577   3.014
   18OSM    H6F 2322   2.975   4.488   3.075
   18OSM    H6G 2323   2.850   4.560   2.969
   18OSM    C7F 2324   2.948   4.697   3.108
   18OSM    H7F 2325   2.929   4.789   3.050
   18OSM    H7G 2326   3.048   4.708   3.156
   18OSM    C8F 2327   2.840   4.686   3.217
   18OSM    H8F 2328   2.739   4.687   3.168
   18OSM    H8G 2329   2.848   4.778   3.277
   18OSM    C9F 2330   2.854   4.565   3.306
   18OSM    H9F 2331   2.834   4.469   3.256
   18OSM   C10F 2332   2.885   4.564   3.436
   18OSM   H10F 2333   2.888   4.466   3.486
   18OSM   C11F 2334   2.914   4.681   3.526
   18OSM   H11F 2335   2.828   4.696   3.595
   18OSM   H11G 2336   2.923   4.777   3.469
   18OSM   C12F 2337   3.042   4.669   3.611
   18OSM   H12F 2338   3.043   4.757   3.681
   18OSM   H12G 2339   3.130   4.681   3.544
   18OSM   C13F 2340   3.064   4.541   3.695
   18OSM   H13F 2341   3.128   4.569   3.782
   18OSM   H13G 2342   3.123   4.468   3.636
   18OSM   C14F 2343   2.936   4.472   3.746
   18OSM   H14F 2344   2.908   4.390   3.677
   18OSM   H14G 2345   2.852   4.544   3.745
   18OSM   C15F 2346   2.944   4.415   3.889
   18OSM   H15F 2347   2.847   4.365   3.912
   18OSM   H15G 2348   2.954   4.499   3.960
   18OSM   C16F 2349   3.056   4.316   3.921
   18OSM   H16F 2350   3.137   4.324   3.845
   18OSM   H16G 2351   3.014   4.213   3.918
   18OSM   C17F 2352   3.119   4.342   4.058
   18OSM   H17F 2353   3.165   4.248   4.097
   18OSM   H17G 2354   3.041   4.373   4.130
   18OSM   C18F 2355   3.224   4.451   4.051
   18OSM   H18F 2356   3.300   4.425   3.974
   18OSM   H18G 2357   3.275   4.463   4.148
   18OSM   H18H 2358   3.177   4.548   4.023
   19SAPS     N 2359   2.523   2.200   6.264
   19SAPS   HN1 2360   2.432   2.186   6.315
   19SAPS   HN2 2361   2.598   2.214   6.334
   19SAPS   HN3 2362   2.516   2.282   6.202
   19SAPS   C12 2363   2.537   2.075   6.185
   19SAPS  H12A 2364   2.637   2.035   6.195
   19SAPS   C13 2365   2.432   1.972   6.238
   19SAPS  O13A 2366   2.349   2.017   6.324
   19SAPS  O13B 2367   2.450   1.849   6.218
   19SAPS   C11 2368   2.508   2.117   6.038
   19SAPS  H11A 2369   2.559   2.212   6.012
   19SAPS  H11B 2370   2.398   2.137   6.031
   19SAPS     P 2371   2.454   1.968   5.835
   19SAPS   O13 2372   2.329   1.925   5.904
   19SAPS   O14 2373   2.446   2.077   5.735
   19SAPS   O12 2374   2.555   2.016   5.949
   19SAPS   O11 2375   2.530   1.840   5.781
   19SAPS    C1 2376   2.564   1.740   5.879
   19SAPS    HA 2377   2.671   1.748   5.906
   19SAPS    HB 2378   2.507   1.749   5.976
   19SAPS    C2 2379   2.530   1.598   5.826
   19SAPS    HS 2380   2.554   1.526   5.907
   19SAPS   O21 2381   2.602   1.559   5.709
   19SAPS   C21 2382   2.722   1.606   5.694
   19SAPS   O22 2383   2.812   1.603   5.776
   19SAPS   C22 2384   2.735   1.661   5.554
   19SAPS   H2R 2385   2.731   1.575   5.484
   19SAPS   H2S 2386   2.649   1.728   5.534
   19SAPS    C3 2387   2.378   1.582   5.792
   19SAPS    HX 2388   2.324   1.589   5.889
   19SAPS    HY 2389   2.363   1.480   5.752
   19SAPS   O31 2390   2.321   1.682   5.704
   19SAPS   C31 2391   2.355   1.678   5.575
   19SAPS   O32 2392   2.423   1.592   5.523
   19SAPS   C32 2393   2.272   1.782   5.498
   19SAPS   H2X 2394   2.236   1.859   5.570
   19SAPS   H2Y 2395   2.184   1.729   5.457
   19SAPS   C23 2396   2.866   1.740   5.540
   19SAPS   H3R 2397   2.949   1.683   5.588
   19SAPS   H3S 2398   2.857   1.836   5.595
   19SAPS   C24 2399   2.903   1.758   5.393
   19SAPS   H4R 2400   2.873   1.665   5.341
   19SAPS   H4S 2401   3.014   1.764   5.382
   19SAPS   C25 2402   2.838   1.879   5.332
   19SAPS   H5R 2403   2.787   1.948   5.402
   19SAPS   C26 2404   2.836   1.903   5.201
   19SAPS   H6R 2405   2.791   1.997   5.165
   19SAPS   C27 2406   2.900   1.816   5.096
   19SAPS   H7R 2407   3.007   1.805   5.121
   19SAPS   H7S 2408   2.897   1.871   5.000
   19SAPS   C28 2409   2.851   1.675   5.075
   19SAPS   H8R 2410   2.885   1.603   5.150
   19SAPS   C29 2411   2.779   1.628   4.972
   19SAPS   H9R 2412   2.765   1.521   4.965
   19SAPS  C210 2413   2.728   1.702   4.853
   19SAPS  H10R 2414   2.797   1.683   4.768
   19SAPS  H10S 2415   2.731   1.812   4.869
   19SAPS  C211 2416   2.588   1.658   4.818
   19SAPS  H11R 2417   2.536   1.590   4.888
   19SAPS  C212 2418   2.525   1.697   4.707
   19SAPS  H12R 2419   2.423   1.662   4.686
   19SAPS  C213 2420   2.587   1.790   4.605
   19SAPS  H13R 2421   2.646   1.866   4.659
   19SAPS  H13S 2422   2.506   1.845   4.552
   19SAPS  C214 2423   2.683   1.731   4.506
   19SAPS  H14R 2424   2.788   1.762   4.519
   19SAPS  C215 2425   2.650   1.646   4.409
   19SAPS  H15R 2426   2.728   1.614   4.337
   19SAPS  C216 2427   2.512   1.595   4.382
   19SAPS  H16R 2428   2.437   1.631   4.456
   19SAPS  H16S 2429   2.514   1.485   4.393
   19SAPS  C217 2430   2.460   1.636   4.244
   19SAPS  H17R 2431   2.373   1.571   4.224
   19SAPS  H17S 2432   2.536   1.617   4.165
   19SAPS  C218 2433   2.414   1.782   4.238
   19SAPS  H18R 2434   2.498   1.850   4.264
   19SAPS  H18S 2435   2.335   1.797   4.315
   19SAPS  C219 2436   2.357   1.823   4.101
   19SAPS  H19R 2437   2.442   1.828   4.029
   19SAPS  H19S 2438   2.314   1.925   4.108
   19SAPS  C220 2439   2.253   1.726   4.044
   19SAPS  H20R 2440   2.300   1.627   4.025
   19SAPS  H20S 2441   2.213   1.763   3.948
   19SAPS  H20T 2442   2.169   1.713   4.115
   19SAPS   C33 2443   2.348   1.854   5.383
   19SAPS   H3X 2444   2.438   1.904   5.426
   19SAPS   H3Y 2445   2.281   1.935   5.344
   19SAPS   C34 2446   2.389   1.765   5.264
   19SAPS   H4X 2447   2.300   1.731   5.207
   19SAPS   H4Y 2448   2.441   1.675   5.303
   19SAPS   C35 2449   2.490   1.834   5.172
   19SAPS   H5X 2450   2.536   1.759   5.104
   19SAPS   H5Y 2451   2.571   1.873   5.237
   19SAPS   C36 2452   2.434   1.949   5.086
   19SAPS   H6X 2453   2.374   2.018   5.149
   19SAPS   H6Y 2454   2.368   1.907   5.008
   19SAPS   C37 2455   2.549   2.028   5.020
   19SAPS   H7X 2456   2.612   1.956   4.964
   19SAPS   H7Y 2457   2.611   2.074   5.100
   19SAPS   C38 2458   2.503   2.139   4.925
   19SAPS   H8X 2459   2.470   2.226   4.987
   19SAPS   H8Y 2460   2.416   2.104   4.867
   19SAPS   C39 2461   2.616   2.185   4.830
   19SAPS   H9X 2462   2.713   2.170   4.882
   19SAPS   H9Y 2463   2.605   2.294   4.811
   19SAPS  C310 2464   2.618   2.112   4.695
   19SAPS  H10X 2465   2.540   2.032   4.699
   19SAPS  H10Y 2466   2.718   2.065   4.682
   19SAPS  C311 2467   2.587   2.200   4.573
   19SAPS  H11X 2468   2.661   2.283   4.570
   19SAPS  H11Y 2469   2.486   2.244   4.586
   19SAPS  C312 2470   2.592   2.130   4.435
   19SAPS  H12X 2471   2.557   2.204   4.360
   19SAPS  H12Y 2472   2.520   2.045   4.433
   19SAPS  C313 2473   2.732   2.081   4.392
   19SAPS  H13X 2474   2.757   1.989   4.449
   19SAPS  H13Y 2475   2.808   2.157   4.418
   19SAPS  C314 2476   2.741   2.051   4.240
   19SAPS  H14X 2477   2.806   2.128   4.192
   19SAPS  H14Y 2478   2.639   2.062   4.198
   19SAPS  C315 2479   2.793   1.910   4.206
   19SAPS  H15X 2480   2.719   1.839   4.249
   19SAPS  H15Y 2481   2.890   1.890   4.255
   19SAPS  C316 2482   2.806   1.875   4.056
   19SAPS  H16X 2483   2.795   1.765   4.045
   19SAPS  H16Y 2484   2.908   1.903   4.021
   19SAPS  C317 2485   2.704   1.947   3.968
   19SAPS  H17X 2486   2.740   2.051   3.957
   19SAPS  H17Y 2487   2.606   1.950   4.019
   19SAPS  C318 2488   2.683   1.889   3.828
   19SAPS  H18X 2489   2.780   1.885   3.772
   19SAPS  H18Y 2490   2.613   1.953   3.770
   19SAPS  H18Z 2491   2.640   1.787   3.833
   20SAPS     N 2492   3.489   0.601   6.034
   20SAPS   HN1 2493   3.528   0.506   6.029
   20SAPS   HN2 2494   3.466   0.646   5.942
   20SAPS   HN3 2495   3.543   0.661   6.100
   20SAPS   C12 2496   3.359   0.604   6.104
   20SAPS  H12A 2497   3.306   0.512   6.086
   20SAPS   C13 2498   3.385   0.627   6.255
   20SAPS  O13A 2499   3.496   0.679   6.289
   20SAPS  O13B 2500   3.302   0.578   6.334
   20SAPS   C11 2501   3.284   0.728   6.050
   20SAPS  H11A 2502   3.320   0.820   6.103
   20SAPS  H11B 2503   3.176   0.714   6.075
   20SAPS     P 2504   3.224   0.865   5.840
   20SAPS   O13 2505   3.157   0.813   5.719
   20SAPS   O14 2506   3.144   0.929   5.945
   20SAPS   O12 2507   3.302   0.744   5.908
   20SAPS   O11 2508   3.347   0.961   5.802
   20SAPS    C1 2509   3.483   0.915   5.798
   20SAPS    HA 2510   3.531   0.926   5.898
   20SAPS    HB 2511   3.486   0.808   5.769
   20SAPS    C2 2512   3.572   0.992   5.693
   20SAPS    HS 2513   3.591   1.093   5.735
   20SAPS   O21 2514   3.503   0.995   5.568
   20SAPS   C21 2515   3.431   1.105   5.551
   20SAPS   O22 2516   3.457   1.213   5.601
   20SAPS   C22 2517   3.315   1.077   5.456
   20SAPS   H2R 2518   3.226   1.061   5.521
   20SAPS   H2S 2519   3.299   1.168   5.395
   20SAPS    C3 2520   3.713   0.930   5.666
   20SAPS    HX 2521   3.766   0.912   5.761
   20SAPS    HY 2522   3.771   1.008   5.611
   20SAPS   O31 2523   3.706   0.815   5.579
   20SAPS   C31 2524   3.680   0.700   5.637
   20SAPS   O32 2525   3.714   0.673   5.751
   20SAPS   C32 2526   3.596   0.611   5.547
   20SAPS   H2X 2527   3.643   0.511   5.545
   20SAPS   H2Y 2528   3.594   0.653   5.444
   20SAPS   C23 2529   3.333   0.953   5.365
   20SAPS   H3R 2530   3.364   0.864   5.425
   20SAPS   H3S 2531   3.413   0.975   5.291
   20SAPS   C24 2532   3.202   0.918   5.294
   20SAPS   H4R 2533   3.152   1.013   5.263
   20SAPS   H4S 2534   3.135   0.868   5.368
   20SAPS   C25 2535   3.229   0.827   5.177
   20SAPS   H5R 2536   3.283   0.735   5.201
   20SAPS   C26 2537   3.202   0.851   5.048
   20SAPS   H6R 2538   3.234   0.778   4.972
   20SAPS   C27 2539   3.139   0.976   4.993
   20SAPS   H7R 2540   3.073   1.026   5.067
   20SAPS   H7S 2541   3.073   0.952   4.906
   20SAPS   C28 2542   3.255   1.064   4.958
   20SAPS   H8R 2543   3.303   1.113   5.044
   20SAPS   C29 2544   3.303   1.088   4.835
   20SAPS   H9R 2545   3.389   1.155   4.822
   20SAPS  C210 2546   3.247   1.031   4.709
   20SAPS  H10R 2547   3.180   0.945   4.728
   20SAPS  H10S 2548   3.330   0.990   4.646
   20SAPS  C211 2549   3.170   1.142   4.644
   20SAPS  H11R 2550   3.069   1.161   4.685
   20SAPS  C212 2551   3.213   1.213   4.540
   20SAPS  H12R 2552   3.144   1.283   4.492
   20SAPS  C213 2553   3.347   1.190   4.475
   20SAPS  H13R 2554   3.332   1.108   4.402
   20SAPS  H13S 2555   3.422   1.152   4.548
   20SAPS  C214 2556   3.410   1.307   4.404
   20SAPS  H14R 2557   3.382   1.408   4.437
   20SAPS  C215 2558   3.504   1.290   4.309
   20SAPS  H15R 2559   3.545   1.379   4.258
   20SAPS  C216 2560   3.557   1.156   4.263
   20SAPS  H16R 2561   3.527   1.073   4.332
   20SAPS  H16S 2562   3.668   1.154   4.266
   20SAPS  C217 2563   3.511   1.120   4.122
   20SAPS  H17R 2564   3.402   1.143   4.113
   20SAPS  H17S 2565   3.523   1.010   4.106
   20SAPS  C218 2566   3.586   1.195   4.011
   20SAPS  H18R 2567   3.610   1.298   4.043
   20SAPS  H18S 2568   3.516   1.203   3.925
   20SAPS  C219 2569   3.708   1.124   3.951
   20SAPS  H19R 2570   3.691   1.123   3.841
   20SAPS  H19S 2571   3.717   1.018   3.984
   20SAPS  C220 2572   3.841   1.190   3.987
   20SAPS  H20R 2573   3.905   1.198   3.896
   20SAPS  H20S 2574   3.827   1.292   4.022
   20SAPS  H20T 2575   3.889   1.132   4.069
   20SAPS   C33 2576   3.452   0.598   5.602
   20SAPS   H3X 2577   3.400   0.697   5.598
   20SAPS   H3Y 2578   3.454   0.566   5.709
   20SAPS   C34 2579   3.366   0.497   5.526
   20SAPS   H4X 2580   3.271   0.483   5.584
   20SAPS   H4Y 2581   3.417   0.398   5.521
   20SAPS   C35 2582   3.328   0.543   5.383
   20SAPS   H5X 2583   3.419   0.556   5.321
   20SAPS   H5Y 2584   3.277   0.641   5.393
   20SAPS   C36 2585   3.232   0.443   5.316
   20SAPS   H6X 2586   3.153   0.427   5.393
   20SAPS   H6Y 2587   3.285   0.348   5.297
   20SAPS   C37 2588   3.158   0.488   5.189
   20SAPS   H7X 2589   3.127   0.593   5.199
   20SAPS   H7Y 2590   3.063   0.431   5.181
   20SAPS   C38 2591   3.234   0.461   5.059
   20SAPS   H8X 2592   3.261   0.353   5.051
   20SAPS   H8Y 2593   3.327   0.521   5.056
   20SAPS   C39 2594   3.143   0.499   4.941
   20SAPS   H9X 2595   3.108   0.602   4.960
   20SAPS   H9Y 2596   3.054   0.433   4.942
   20SAPS  C310 2597   3.210   0.492   4.803
   20SAPS  H10X 2598   3.242   0.388   4.782
   20SAPS  H10Y 2599   3.301   0.556   4.806
   20SAPS  C311 2600   3.121   0.542   4.688
   20SAPS  H11X 2601   3.046   0.464   4.661
   20SAPS  H11Y 2602   3.186   0.556   4.599
   20SAPS  C312 2603   3.045   0.673   4.719
   20SAPS  H12X 2604   3.120   0.748   4.751
   20SAPS  H12Y 2605   2.976   0.656   4.805
   20SAPS  C313 2606   2.960   0.729   4.604
   20SAPS  H13X 2607   2.924   0.830   4.631
   20SAPS  H13Y 2608   2.870   0.663   4.592
   20SAPS  C314 2609   3.031   0.735   4.468
   20SAPS  H14X 2610   2.959   0.775   4.392
   20SAPS  H14Y 2611   3.057   0.630   4.443
   20SAPS  C315 2612   3.161   0.816   4.463
   20SAPS  H15X 2613   3.237   0.766   4.528
   20SAPS  H15Y 2614   3.141   0.915   4.506
   20SAPS  C316 2615   3.224   0.834   4.323
   20SAPS  H16X 2616   3.242   0.733   4.279
   20SAPS  H16Y 2617   3.323   0.882   4.336
   20SAPS  C317 2618   3.143   0.918   4.223
   20SAPS  H17X 2619   3.051   0.863   4.196
   20SAPS  H17Y 2620   3.203   0.929   4.130
   20SAPS  C318 2621   3.098   1.057   4.269
   20SAPS  H18X 2622   3.078   1.059   4.377
   20SAPS  H18Y 2623   3.002   1.084   4.221
   20SAPS  H18Z 2624   3.172   1.135   4.243
   21SAPS     N 2625   2.668   0.197   5.874
   21SAPS   HN1 2626   2.692   0.254   5.791
   21SAPS   HN2 2627   2.647   0.097   5.853
   21SAPS   HN3 2628   2.584   0.239   5.923
   21SAPS   C12 2629   2.776   0.198   5.976
   21SAPS  H12A 2630   2.794   0.301   6.005
   21SAPS   C13 2631   2.731   0.118   6.103
   21SAPS  O13A 2632   2.627   0.047   6.092
   21SAPS  O13B 2633   2.756   0.172   6.214
   21SAPS   C11 2634   2.906   0.141   5.912
   21SAPS  H11A 2635   2.918   0.179   5.808
   21SAPS  H11B 2636   2.899   0.030   5.904
   21SAPS     P 2637   3.134   0.093   6.037
   21SAPS   O13 2638   3.227   0.173   6.120
   21SAPS   O14 2639   3.074  -0.025   6.102
   21SAPS   O12 2640   3.019   0.187   5.984
   21SAPS   O11 2641   3.206   0.045   5.908
   21SAPS    C1 2642   3.295   0.122   5.830
   21SAPS    HA 2643   3.287   0.232   5.850
   21SAPS    HB 2644   3.399   0.090   5.854
   21SAPS    C2 2645   3.263   0.094   5.682
   21SAPS    HS 2646   3.353   0.123   5.623
   21SAPS   O21 2647   3.149   0.175   5.648
   21SAPS   C21 2648   3.134   0.195   5.519
   21SAPS   O22 2649   3.216   0.170   5.432
   21SAPS   C22 2650   2.991   0.245   5.497
   21SAPS   H2R 2651   2.924   0.185   5.562
   21SAPS   H2S 2652   2.987   0.352   5.528
   21SAPS    C3 2653   3.234  -0.059   5.662
   21SAPS    HX 2654   3.143  -0.088   5.720
   21SAPS    HY 2655   3.318  -0.113   5.710
   21SAPS   O31 2656   3.227  -0.097   5.524
   21SAPS   C31 2657   3.106  -0.105   5.467
   21SAPS   O32 2658   3.000  -0.095   5.526
   21SAPS   C32 2659   3.127  -0.118   5.315
   21SAPS   H2X 2660   3.189  -0.209   5.301
   21SAPS   H2Y 2661   3.185  -0.030   5.282
   21SAPS   C23 2662   2.949   0.227   5.351
   21SAPS   H3R 2663   2.942   0.119   5.330
   21SAPS   H3S 2664   3.029   0.264   5.283
   21SAPS   C24 2665   2.817   0.297   5.316
   21SAPS   H4R 2666   2.819   0.319   5.207
   21SAPS   H4S 2667   2.811   0.396   5.367
   21SAPS   C25 2668   2.699   0.209   5.349
   21SAPS   H5R 2669   2.655   0.226   5.448
   21SAPS   C26 2670   2.645   0.117   5.267
   21SAPS   H6R 2671   2.560   0.056   5.303
   21SAPS   C27 2672   2.690   0.081   5.128
   21SAPS   H7R 2673   2.712  -0.028   5.123
   21SAPS   H7S 2674   2.786   0.131   5.104
   21SAPS   C28 2675   2.587   0.114   5.022
   21SAPS   H8R 2676   2.504   0.042   5.013
   21SAPS   C29 2677   2.586   0.222   4.941
   21SAPS   H9R 2678   2.506   0.231   4.866
   21SAPS  C210 2679   2.687   0.335   4.940
   21SAPS  H10R 2680   2.693   0.378   5.042
   21SAPS  H10S 2681   2.646   0.417   4.878
   21SAPS  C211 2682   2.826   0.299   4.893
   21SAPS  H11R 2683   2.896   0.270   4.973
   21SAPS  C212 2684   2.869   0.296   4.766
   21SAPS  H12R 2685   2.973   0.266   4.746
   21SAPS  C213 2686   2.788   0.328   4.643
   21SAPS  H13R 2687   2.839   0.405   4.582
   21SAPS  H13S 2688   2.689   0.371   4.669
   21SAPS  C214 2689   2.768   0.200   4.565
   21SAPS  H14R 2690   2.785   0.108   4.622
   21SAPS  C215 2691   2.733   0.191   4.436
   21SAPS  H15R 2692   2.721   0.092   4.389
   21SAPS  C216 2693   2.708   0.308   4.345
   21SAPS  H16R 2694   2.654   0.390   4.398
   21SAPS  H16S 2695   2.644   0.276   4.260
   21SAPS  C217 2696   2.837   0.364   4.288
   21SAPS  H17R 2697   2.893   0.281   4.238
   21SAPS  H17S 2698   2.903   0.405   4.368
   21SAPS  C218 2699   2.806   0.472   4.184
   21SAPS  H18R 2700   2.778   0.567   4.234
   21SAPS  H18S 2701   2.718   0.439   4.126
   21SAPS  C219 2702   2.926   0.494   4.092
   21SAPS  H19R 2703   2.895   0.542   3.997
   21SAPS  H19S 2704   2.974   0.396   4.068
   21SAPS  C220 2705   3.024   0.586   4.160
   21SAPS  H20R 2706   2.997   0.689   4.131
   21SAPS  H20S 2707   3.130   0.565   4.136
   21SAPS  H20T 2708   3.012   0.575   4.269
   21SAPS   C33 2709   3.000  -0.133   5.228
   21SAPS   H3X 2710   2.931  -0.046   5.232
   21SAPS   H3Y 2711   2.940  -0.218   5.266
   21SAPS   C34 2712   3.036  -0.157   5.080
   21SAPS   H4X 2713   2.955  -0.218   5.034
   21SAPS   H4Y 2714   3.128  -0.218   5.073
   21SAPS   C35 2715   3.050  -0.028   4.998
   21SAPS   H5X 2716   3.132   0.036   5.038
   21SAPS   H5Y 2717   2.955   0.029   5.012
   21SAPS   C36 2718   3.065  -0.054   4.847
   21SAPS   H6X 2719   2.979  -0.005   4.797
   21SAPS   H6Y 2720   3.058  -0.164   4.830
   21SAPS   C37 2721   3.191   0.000   4.777
   21SAPS   H7X 2722   3.280  -0.061   4.804
   21SAPS   H7Y 2723   3.209   0.104   4.813
   21SAPS   C38 2724   3.174   0.006   4.624
   21SAPS   H8X 2725   3.267   0.046   4.578
   21SAPS   H8Y 2726   3.091   0.078   4.602
   21SAPS   C39 2727   3.138  -0.128   4.555
   21SAPS   H9X 2728   3.065  -0.184   4.617
   21SAPS   H9Y 2729   3.227  -0.191   4.544
   21SAPS  C310 2730   3.073  -0.110   4.416
   21SAPS  H10X 2731   2.982  -0.046   4.429
   21SAPS  H10Y 2732   3.039  -0.209   4.380
   21SAPS  C311 2733   3.162  -0.048   4.307
   21SAPS  H11X 2734   3.226  -0.127   4.262
   21SAPS  H11Y 2735   3.230   0.027   4.354
   21SAPS  C312 2736   3.082   0.024   4.197
   21SAPS  H12X 2737   3.154   0.066   4.123
   21SAPS  H12Y 2738   3.030   0.110   4.244
   21SAPS  C313 2739   2.979  -0.063   4.123
   21SAPS  H13X 2740   2.913  -0.114   4.196
   21SAPS  H13Y 2741   3.033  -0.141   4.065
   21SAPS  C314 2742   2.888   0.018   4.028
   21SAPS  H14X 2743   2.949   0.087   3.966
   21SAPS  H14Y 2744   2.822   0.080   4.092
   21SAPS  C315 2745   2.801  -0.069   3.934
   21SAPS  H15X 2746   2.791  -0.169   3.981
   21SAPS  H15Y 2747   2.852  -0.084   3.837
   21SAPS  C316 2748   2.658  -0.014   3.916
   21SAPS  H16X 2749   2.654   0.087   3.962
   21SAPS  H16Y 2750   2.588  -0.075   3.977
   21SAPS  C317 2751   2.599  -0.004   3.773
   21SAPS  H17X 2752   2.518   0.072   3.780
   21SAPS  H17Y 2753   2.550  -0.099   3.745
   21SAPS  C318 2754   2.688   0.038   3.657
   21SAPS  H18X 2755   2.624   0.048   3.567
   21SAPS  H18Y 2756   2.768  -0.037   3.636
   21SAPS  H18Z 2757   2.733   0.137   3.673
   22SAPS     N 2758   0.234   1.365   6.250
   22SAPS   HN1 2759   0.153   1.301   6.237
   22SAPS   HN2 2760   0.284   1.346   6.339
   22SAPS   HN3 2761   0.205   1.464   6.236
   22SAPS   C12 2762   0.326   1.331   6.139
   22SAPS  H12A 2763   0.416   1.391   6.147
   22SAPS   C13 2764   0.372   1.182   6.146
   22SAPS  O13A 2765   0.353   1.124   6.257
   22SAPS  O13B 2766   0.467   1.153   6.069
   22SAPS   C11 2767   0.249   1.368   6.011
   22SAPS  H11A 2768   0.163   1.298   5.997
   22SAPS  H11B 2769   0.318   1.351   5.927
   22SAPS     P 2770   0.265   1.623   5.935
   22SAPS   O13 2771   0.169   1.671   5.833
   22SAPS   O14 2772   0.320   1.713   6.038
   22SAPS   O12 2773   0.200   1.503   6.015
   22SAPS   O11 2774   0.387   1.562   5.861
   22SAPS    C1 2775   0.516   1.623   5.856
   22SAPS    HA 2776   0.508   1.730   5.828
   22SAPS    HB 2777   0.566   1.618   5.955
   22SAPS    C2 2778   0.605   1.547   5.753
   22SAPS    HS 2779   0.703   1.599   5.745
   22SAPS   O21 2780   0.544   1.538   5.623
   22SAPS   C21 2781   0.511   1.651   5.563
   22SAPS   O22 2782   0.552   1.762   5.594
   22SAPS   C22 2783   0.413   1.617   5.448
   22SAPS   H2R 2784   0.406   1.506   5.442
   22SAPS   H2S 2785   0.314   1.656   5.477
   22SAPS    C3 2786   0.633   1.402   5.803
   22SAPS    HX 2787   0.677   1.410   5.904
   22SAPS    HY 2788   0.707   1.350   5.738
   22SAPS   O31 2789   0.512   1.326   5.818
   22SAPS   C31 2790   0.471   1.261   5.710
   22SAPS   O32 2791   0.536   1.251   5.607
   22SAPS   C32 2792   0.331   1.201   5.725
   22SAPS   H2X 2793   0.320   1.168   5.830
   22SAPS   H2Y 2794   0.326   1.109   5.662
   22SAPS   C23 2795   0.454   1.667   5.306
   22SAPS   H3R 2796   0.410   1.600   5.229
   22SAPS   H3S 2797   0.564   1.660   5.295
   22SAPS   C24 2798   0.410   1.812   5.276
   22SAPS   H4R 2799   0.494   1.857   5.219
   22SAPS   H4S 2800   0.406   1.865   5.373
   22SAPS   C25 2801   0.281   1.839   5.201
   22SAPS   H5R 2802   0.195   1.860   5.266
   22SAPS   C26 2803   0.263   1.844   5.067
   22SAPS   H6R 2804   0.161   1.869   5.031
   22SAPS   C27 2805   0.365   1.824   4.955
   22SAPS   H7R 2806   0.405   1.721   4.961
   22SAPS   H7S 2807   0.454   1.886   4.975
   22SAPS   C28 2808   0.309   1.851   4.816
   22SAPS   H8R 2809   0.199   1.846   4.810
   22SAPS   C29 2810   0.378   1.878   4.702
   22SAPS   H9R 2811   0.325   1.897   4.607
   22SAPS  C210 2812   0.528   1.885   4.699
   22SAPS  H10R 2813   0.558   1.785   4.738
   22SAPS  H10S 2814   0.560   1.956   4.780
   22SAPS  C211 2815   0.631   1.906   4.591
   22SAPS  H11R 2816   0.726   1.882   4.637
   22SAPS  C212 2817   0.647   1.954   4.465
   22SAPS  H12R 2818   0.751   1.947   4.429
   22SAPS  C213 2819   0.565   2.025   4.360
   22SAPS  H13R 2820   0.619   1.995   4.267
   22SAPS  H13S 2821   0.588   2.132   4.369
   22SAPS  C214 2822   0.418   2.021   4.330
   22SAPS  H14R 2823   0.349   2.034   4.415
   22SAPS  C215 2824   0.366   2.009   4.205
   22SAPS  H15R 2825   0.257   2.014   4.193
   22SAPS  C216 2826   0.443   1.997   4.074
   22SAPS  H16R 2827   0.543   1.952   4.087
   22SAPS  H16S 2828   0.462   2.097   4.031
   22SAPS  C217 2829   0.365   1.912   3.972
   22SAPS  H17R 2830   0.279   1.974   3.936
   22SAPS  H17S 2831   0.320   1.825   4.024
   22SAPS  C218 2832   0.440   1.854   3.849
   22SAPS  H18R 2833   0.398   1.898   3.756
   22SAPS  H18S 2834   0.415   1.745   3.842
   22SAPS  C219 2835   0.593   1.870   3.841
   22SAPS  H19R 2836   0.625   1.970   3.877
   22SAPS  H19S 2837   0.621   1.865   3.733
   22SAPS  C220 2838   0.670   1.760   3.914
   22SAPS  H20R 2839   0.656   1.768   4.023
   22SAPS  H20S 2840   0.779   1.770   3.895
   22SAPS  H20T 2841   0.637   1.659   3.881
   22SAPS   C33 2842   0.221   1.302   5.686
   22SAPS   H3X 2843   0.249   1.404   5.722
   22SAPS   H3Y 2844   0.127   1.276   5.740
   22SAPS   C34 2845   0.190   1.312   5.536
   22SAPS   H4X 2846   0.143   1.217   5.502
   22SAPS   H4Y 2847   0.285   1.326   5.479
   22SAPS   C35 2848   0.096   1.431   5.509
   22SAPS   H5X 2849   0.146   1.526   5.537
   22SAPS   H5Y 2850   0.010   1.419   5.578
   22SAPS   C36 2851   0.040   1.438   5.366
   22SAPS   H6X 2852  -0.054   1.497   5.372
   22SAPS   H6Y 2853   0.015   1.336   5.331
   22SAPS   C37 2854   0.128   1.505   5.259
   22SAPS   H7X 2855   0.220   1.447   5.242
   22SAPS   H7Y 2856   0.158   1.605   5.298
   22SAPS   C38 2857   0.050   1.524   5.127
   22SAPS   H8X 2858   0.051   1.633   5.102
   22SAPS   H8Y 2859  -0.056   1.497   5.144
   22SAPS   C39 2860   0.104   1.446   5.006
   22SAPS   H9X 2861   0.030   1.455   4.924
   22SAPS   H9Y 2862   0.114   1.338   5.031
   22SAPS  C310 2863   0.237   1.504   4.959
   22SAPS  H10X 2864   0.320   1.468   5.023
   22SAPS  H10Y 2865   0.227   1.613   4.974
   22SAPS  C311 2866   0.272   1.486   4.810
   22SAPS  H11X 2867   0.364   1.545   4.790
   22SAPS  H11Y 2868   0.191   1.528   4.747
   22SAPS  C312 2869   0.295   1.340   4.776
   22SAPS  H12X 2870   0.194   1.294   4.765
   22SAPS  H12Y 2871   0.349   1.293   4.862
   22SAPS  C313 2872   0.376   1.309   4.650
   22SAPS  H13X 2873   0.323   1.353   4.564
   22SAPS  H13Y 2874   0.375   1.198   4.634
   22SAPS  C314 2875   0.522   1.354   4.656
   22SAPS  H14X 2876   0.569   1.312   4.748
   22SAPS  H14Y 2877   0.527   1.465   4.663
   22SAPS  C315 2878   0.601   1.309   4.533
   22SAPS  H15X 2879   0.601   1.197   4.529
   22SAPS  H15Y 2880   0.707   1.342   4.541
   22SAPS  C316 2881   0.540   1.366   4.404
   22SAPS  H16X 2882   0.526   1.475   4.416
   22SAPS  H16Y 2883   0.441   1.319   4.393
   22SAPS  C317 2884   0.617   1.335   4.275
   22SAPS  H17X 2885   0.683   1.249   4.297
   22SAPS  H17Y 2886   0.681   1.420   4.246
   22SAPS  C318 2887   0.526   1.303   4.157
   22SAPS  H18X 2888   0.582   1.256   4.074
   22SAPS  H18Y 2889   0.475   1.394   4.120
   22SAPS  H18Z 2890   0.448   1.230   4.189
   23SAPS     N 2891   0.877   4.120   1.876
   23SAPS   HN1 2892   0.876   4.201   1.811
   23SAPS   HN2 2893   0.781   4.083   1.893
   23SAPS   HN3 2894   0.926   4.141   1.967
   23SAPS   C12 2895   0.967   4.020   1.810
   23SAPS  H12A 2896   0.917   3.924   1.810
   23SAPS   C13 2897   1.011   4.056   1.665
   23SAPS  O13A 2898   1.018   4.179   1.634
   23SAPS  O13B 2899   1.088   3.970   1.613
   23SAPS   C11 2900   1.099   4.014   1.893
   23SAPS  H11A 2901   1.174   4.086   1.852
   23SAPS  H11B 2902   1.142   3.911   1.876
   23SAPS     P 2903   1.179   3.982   2.138
   23SAPS   O13 2904   1.294   3.919   2.068
   23SAPS   O14 2905   1.202   4.083   2.243
   23SAPS   O12 2906   1.079   4.045   2.032
   23SAPS   O11 2907   1.082   3.869   2.191
   23SAPS    C1 2908   0.970   3.907   2.272
   23SAPS    HA 2909   0.950   4.017   2.274
   23SAPS    HB 2910   0.878   3.862   2.229
   23SAPS    C2 2911   0.982   3.855   2.418
   23SAPS    HS 2912   0.886   3.805   2.442
   23SAPS   O21 2913   1.003   3.961   2.512
   23SAPS   C21 2914   0.899   4.036   2.539
   23SAPS   O22 2915   0.796   4.042   2.474
   23SAPS   C22 2916   0.932   4.111   2.667
   23SAPS   H2R 2917   1.022   4.066   2.713
   23SAPS   H2S 2918   0.953   4.216   2.641
   23SAPS    C3 2919   1.097   3.752   2.439
   23SAPS    HX 2920   1.194   3.807   2.442
   23SAPS    HY 2921   1.099   3.688   2.348
   23SAPS   O31 2922   1.077   3.667   2.555
   23SAPS   C31 2923   1.091   3.727   2.673
   23SAPS   O32 2924   1.154   3.828   2.695
   23SAPS   C32 2925   1.017   3.650   2.782
   23SAPS   H2X 2926   1.085   3.650   2.871
   23SAPS   H2Y 2927   1.000   3.545   2.749
   23SAPS   C23 2928   0.816   4.103   2.766
   23SAPS   H3R 2929   0.858   4.123   2.867
   23SAPS   H3S 2930   0.775   3.999   2.768
   23SAPS   C24 2931   0.706   4.204   2.734
   23SAPS   H4R 2932   0.668   4.189   2.630
   23SAPS   H4S 2933   0.745   4.308   2.740
   23SAPS   C25 2934   0.594   4.181   2.830
   23SAPS   H5R 2935   0.507   4.128   2.788
   23SAPS   C26 2936   0.599   4.210   2.961
   23SAPS   H6R 2937   0.513   4.185   3.023
   23SAPS   C27 2938   0.712   4.271   3.038
   23SAPS   H7R 2939   0.672   4.356   3.096
   23SAPS   H7S 2940   0.790   4.314   2.971
   23SAPS   C28 2941   0.770   4.172   3.136
   23SAPS   H8R 2942   0.702   4.090   3.164
   23SAPS   C29 2943   0.891   4.178   3.194
   23SAPS   H9R 2944   0.916   4.095   3.262
   23SAPS  C210 2945   0.998   4.283   3.176
   23SAPS  H10R 2946   0.976   4.371   3.241
   23SAPS  H10S 2947   0.994   4.323   3.071
   23SAPS  C211 2948   1.135   4.227   3.206
   23SAPS  H11R 2949   1.159   4.141   3.142
   23SAPS  C212 2950   1.233   4.272   3.290
   23SAPS  H12R 2951   1.324   4.211   3.291
   23SAPS  C213 2952   1.243   4.394   3.382
   23SAPS  H13R 2953   1.142   4.441   3.385
   23SAPS  H13S 2954   1.300   4.454   3.311
   23SAPS  C214 2955   1.326   4.416   3.515
   23SAPS  H14R 2956   1.434   4.403   3.490
   23SAPS  C215 2957   1.301   4.431   3.651
   23SAPS  H15R 2958   1.394   4.440   3.714
   23SAPS  C216 2959   1.182   4.437   3.752
   23SAPS  H16R 2960   1.091   4.486   3.715
   23SAPS  H16S 2961   1.213   4.515   3.825
   23SAPS  C217 2962   1.145   4.322   3.856
   23SAPS  H17R 2963   1.190   4.352   3.953
   23SAPS  H17S 2964   1.199   4.233   3.821
   23SAPS  C218 2965   0.996   4.278   3.890
   23SAPS  H18R 2966   0.949   4.237   3.799
   23SAPS  H18S 2967   0.935   4.365   3.919
   23SAPS  C219 2968   0.971   4.168   3.998
   23SAPS  H19R 2969   0.935   4.214   4.092
   23SAPS  H19S 2970   1.066   4.122   4.027
   23SAPS  C220 2971   0.865   4.059   3.968
   23SAPS  H20R 2972   0.819   4.074   3.868
   23SAPS  H20S 2973   0.783   4.061   4.043
   23SAPS  H20T 2974   0.910   3.958   3.973
   23SAPS   C33 2975   0.884   3.719   2.818
   23SAPS   H3X 2976   0.810   3.704   2.736
   23SAPS   H3Y 2977   0.900   3.829   2.829
   23SAPS   C34 2978   0.821   3.671   2.950
   23SAPS   H4X 2979   0.890   3.698   3.033
   23SAPS   H4Y 2980   0.809   3.560   2.950
   23SAPS   C35 2981   0.684   3.738   2.972
   23SAPS   H5X 2982   0.613   3.699   2.896
   23SAPS   H5Y 2983   0.694   3.847   2.954
   23SAPS   C36 2984   0.625   3.716   3.112
   23SAPS   H6X 2985   0.618   3.608   3.133
   23SAPS   H6Y 2986   0.522   3.758   3.112
   23SAPS   C37 2987   0.705   3.785   3.223
   23SAPS   H7X 2988   0.728   3.888   3.189
   23SAPS   H7Y 2989   0.801   3.733   3.238
   23SAPS   C38 2990   0.627   3.792   3.355
   23SAPS   H8X 2991   0.638   3.696   3.410
   23SAPS   H8Y 2992   0.519   3.806   3.332
   23SAPS   C39 2993   0.673   3.908   3.443
   23SAPS   H9X 2994   0.610   3.918   3.534
   23SAPS   H9Y 2995   0.659   4.002   3.384
   23SAPS  C310 2996   0.821   3.895   3.482
   23SAPS  H10X 2997   0.866   3.995   3.472
   23SAPS  H10Y 2998   0.875   3.832   3.409
   23SAPS  C311 2999   0.849   3.841   3.624
   23SAPS  H11X 3000   0.776   3.759   3.643
   23SAPS  H11Y 3001   0.828   3.922   3.697
   23SAPS  C312 3002   0.993   3.787   3.640
   23SAPS  H12X 3003   1.050   3.810   3.546
   23SAPS  H12Y 3004   0.995   3.677   3.647
   23SAPS  C313 3005   1.076   3.842   3.758
   23SAPS  H13X 3006   1.020   3.923   3.807
   23SAPS  H13Y 3007   1.167   3.888   3.713
   23SAPS  C314 3008   1.127   3.740   3.862
   23SAPS  H14X 3009   1.152   3.646   3.809
   23SAPS  H14Y 3010   1.049   3.720   3.938
   23SAPS  C315 3011   1.253   3.789   3.934
   23SAPS  H15X 3012   1.327   3.817   3.855
   23SAPS  H15Y 3013   1.298   3.709   3.995
   23SAPS  C316 3014   1.232   3.917   4.015
   23SAPS  H16X 3015   1.166   3.902   4.103
   23SAPS  H16Y 3016   1.180   3.987   3.947
   23SAPS  C317 3017   1.363   3.982   4.057
   23SAPS  H17X 3018   1.438   3.905   4.088
   23SAPS  H17Y 3019   1.345   4.047   4.145
   23SAPS  C318 3020   1.418   4.068   3.944
   23SAPS  H18X 3021   1.334   4.111   3.888
   23SAPS  H18Y 3022   1.477   4.005   3.874
   23SAPS  H18Z 3023   1.481   4.151   3.981
   24SAPS     N 3024   4.260   1.632   1.910
   24SAPS   HN1 3025   4.333   1.707   1.920
   24SAPS   HN2 3026   4.207   1.638   1.820
   24SAPS   HN3 3027   4.192   1.630   1.988
   24SAPS   C12 3028   4.331   1.501   1.900
   24SAPS  H12A 3029   4.322   1.448   1.994
   24SAPS   C13 3030   4.272   1.413   1.789
   24SAPS  O13A 3031   4.175   1.464   1.726
   24SAPS  O13B 3032   4.300   1.291   1.782
   24SAPS   C11 3033   4.480   1.535   1.872
   24SAPS  H11A 3034   4.489   1.584   1.773
   24SAPS  H11B 3035   4.539   1.441   1.866
   24SAPS     P 3036   4.590   1.565   2.105
   24SAPS   O13 3037   4.667   1.443   2.070
   24SAPS   O14 3038   4.660   1.672   2.179
   24SAPS   O12 3039   4.530   1.626   1.972
   24SAPS   O11 3040   4.454   1.534   2.179
   24SAPS    C1 3041   4.373   1.643   2.226
   24SAPS    HA 3042   4.419   1.744   2.212
   24SAPS    HB 3043   4.275   1.645   2.172
   24SAPS    C2 3044   4.337   1.628   2.375
   24SAPS    HS 3045   4.273   1.715   2.404
   24SAPS   O21 3046   4.454   1.622   2.457
   24SAPS   C21 3047   4.514   1.737   2.481
   24SAPS   O22 3048   4.476   1.847   2.445
   24SAPS   C22 3049   4.636   1.707   2.566
   24SAPS   H2R 3050   4.620   1.607   2.611
   24SAPS   H2S 3051   4.725   1.701   2.501
   24SAPS    C3 3052   4.257   1.498   2.400
   24SAPS    HX 3053   4.324   1.413   2.376
   24SAPS    HY 3054   4.170   1.492   2.332
   24SAPS   O31 3055   4.218   1.489   2.539
   24SAPS   C31 3056   4.124   1.579   2.571
   24SAPS   O32 3057   4.055   1.640   2.491
   24SAPS   C32 3058   4.125   1.601   2.721
   24SAPS   H2X 3059   4.122   1.504   2.774
   24SAPS   H2Y 3060   4.033   1.657   2.745
   24SAPS   C23 3061   4.660   1.807   2.683
   24SAPS   H3R 3062   4.564   1.858   2.710
   24SAPS   H3S 3063   4.731   1.886   2.649
   24SAPS   C24 3064   4.713   1.737   2.809
   24SAPS   H4R 3065   4.628   1.682   2.854
   24SAPS   H4S 3066   4.745   1.812   2.884
   24SAPS   C25 3067   4.826   1.643   2.774
   24SAPS   H5R 3068   4.912   1.693   2.726
   24SAPS   C26 3069   4.829   1.510   2.789
   24SAPS   H6R 3070   4.922   1.457   2.759
   24SAPS   C27 3071   4.722   1.420   2.845
   24SAPS   H7R 3072   4.685   1.353   2.764
   24SAPS   H7S 3073   4.633   1.477   2.880
   24SAPS   C28 3074   4.778   1.334   2.956
   24SAPS   H8R 3075   4.885   1.307   2.946
   24SAPS   C29 3076   4.711   1.288   3.063
   24SAPS   H9R 3077   4.767   1.232   3.139
   24SAPS  C210 3078   4.565   1.310   3.097
   24SAPS  H10R 3079   4.551   1.417   3.124
   24SAPS  H10S 3080   4.545   1.253   3.191
   24SAPS  C211 3081   4.463   1.270   2.994
   24SAPS  H11R 3082   4.501   1.250   2.893
   24SAPS  C212 3083   4.330   1.265   3.017
   24SAPS  H12R 3084   4.262   1.234   2.936
   24SAPS  C213 3085   4.263   1.298   3.148
   24SAPS  H13R 3086   4.161   1.337   3.128
   24SAPS  H13S 3087   4.317   1.383   3.196
   24SAPS  C214 3088   4.253   1.180   3.241
   24SAPS  H14R 3089   4.200   1.093   3.200
   24SAPS  C215 3090   4.303   1.171   3.366
   24SAPS  H15R 3091   4.285   1.080   3.424
   24SAPS  C216 3092   4.379   1.278   3.440
   24SAPS  H16R 3093   4.441   1.341   3.372
   24SAPS  H16S 3094   4.451   1.229   3.509
   24SAPS  C217 3095   4.287   1.370   3.522
   24SAPS  H17R 3096   4.347   1.409   3.607
   24SAPS  H17S 3097   4.201   1.314   3.565
   24SAPS  C218 3098   4.239   1.494   3.446
   24SAPS  H18R 3099   4.183   1.463   3.355
   24SAPS  H18S 3100   4.329   1.551   3.413
   24SAPS  C219 3101   4.149   1.586   3.529
   24SAPS  H19R 3102   4.051   1.535   3.536
   24SAPS  H19S 3103   4.131   1.680   3.472
   24SAPS  C220 3104   4.194   1.620   3.671
   24SAPS  H20R 3105   4.291   1.674   3.671
   24SAPS  H20S 3106   4.206   1.527   3.731
   24SAPS  H20T 3107   4.119   1.684   3.723
   24SAPS   C33 3108   4.250   1.682   2.766
   24SAPS   H3X 3109   4.274   1.761   2.691
   24SAPS   H3Y 3110   4.338   1.614   2.772
   24SAPS   C34 3111   4.225   1.750   2.900
   24SAPS   H4X 3112   4.174   1.679   2.969
   24SAPS   H4Y 3113   4.156   1.836   2.882
   24SAPS   C35 3114   4.352   1.803   2.969
   24SAPS   H5X 3115   4.322   1.885   3.038
   24SAPS   H5Y 3116   4.421   1.846   2.894
   24SAPS   C36 3117   4.421   1.695   3.053
   24SAPS   H6X 3118   4.459   1.613   2.989
   24SAPS   H6Y 3119   4.344   1.651   3.120
   24SAPS   C37 3120   4.534   1.749   3.143
   24SAPS   H7X 3121   4.527   1.860   3.149
   24SAPS   H7Y 3122   4.633   1.725   3.098
   24SAPS   C38 3123   4.524   1.690   3.284
   24SAPS   H8X 3124   4.525   1.579   3.278
   24SAPS   H8Y 3125   4.428   1.720   3.329
   24SAPS   C39 3126   4.635   1.735   3.378
   24SAPS   H9X 3127   4.654   1.844   3.365
   24SAPS   H9Y 3128   4.726   1.679   3.352
   24SAPS  C310 3129   4.602   1.710   3.526
   24SAPS  H10X 3130   4.499   1.747   3.548
   24SAPS  H10Y 3131   4.673   1.767   3.590
   24SAPS  C311 3132   4.609   1.563   3.565
   24SAPS  H11X 3133   4.711   1.522   3.549
   24SAPS  H11Y 3134   4.538   1.503   3.504
   24SAPS  C312 3135   4.574   1.550   3.713
   24SAPS  H12X 3136   4.473   1.591   3.730
   24SAPS  H12Y 3137   4.645   1.611   3.773
   24SAPS  C313 3138   4.576   1.406   3.763
   24SAPS  H13X 3139   4.676   1.363   3.762
   24SAPS  H13Y 3140   4.517   1.340   3.696
   24SAPS  C314 3141   4.522   1.402   3.905
   24SAPS  H14X 3142   4.517   1.505   3.946
   24SAPS  H14Y 3143   4.589   1.342   3.971
   24SAPS  C315 3144   4.385   1.339   3.901
   24SAPS  H15X 3145   4.331   1.361   3.807
   24SAPS  H15Y 3146   4.322   1.376   3.983
   24SAPS  C316 3147   4.400   1.189   3.919
   24SAPS  H16X 3148   4.438   1.173   4.023
   24SAPS  H16Y 3149   4.475   1.147   3.848
   24SAPS  C317 3150   4.267   1.121   3.902
   24SAPS  H17X 3151   4.253   1.101   3.793
   24SAPS  H17Y 3152   4.185   1.190   3.935
   24SAPS  C318 3153   4.263   0.995   3.985
   24SAPS  H18X 3154   4.322   0.914   3.936
   24SAPS  H18Y 3155   4.159   0.961   4.001
   24SAPS  H18Z 3156   4.305   1.016   4.085
   25SAPS     N 3157   5.105   3.120   1.746
   25SAPS   HN1 3158   5.185   3.175   1.712
   25SAPS   HN2 3159   5.043   3.098   1.665
   25SAPS   HN3 3160   5.056   3.174   1.821
   25SAPS   C12 3161   5.156   2.999   1.819
   25SAPS  H12A 3162   5.078   2.925   1.825
   25SAPS   C13 3163   5.279   2.935   1.752
   25SAPS  O13A 3164   5.320   2.993   1.647
   25SAPS  O13B 3165   5.359   2.864   1.819
   25SAPS   C11 3166   5.186   3.051   1.961
   25SAPS  H11A 3167   5.277   3.112   1.966
   25SAPS  H11B 3168   5.205   2.965   2.030
   25SAPS     P 3169   4.969   3.079   2.091
   25SAPS   O13 3170   4.901   2.972   2.015
   25SAPS   O14 3171   5.045   3.042   2.212
   25SAPS   O12 3172   5.079   3.138   1.997
   25SAPS   O11 3173   4.874   3.199   2.115
   25SAPS    C1 3174   4.844   3.327   2.063
   25SAPS    HA 3175   4.925   3.361   1.994
   25SAPS    HB 3176   4.752   3.325   2.002
   25SAPS    C2 3177   4.823   3.436   2.176
   25SAPS    HS 3178   4.834   3.535   2.127
   25SAPS   O21 3179   4.927   3.419   2.275
   25SAPS   C21 3180   5.052   3.434   2.230
   25SAPS   O22 3181   5.087   3.478   2.122
   25SAPS   C22 3182   5.146   3.412   2.348
   25SAPS   H2R 3183   5.131   3.310   2.388
   25SAPS   H2S 3184   5.250   3.422   2.310
   25SAPS    C3 3185   4.679   3.442   2.253
   25SAPS    HX 3186   4.609   3.480   2.176
   25SAPS    HY 3187   4.694   3.522   2.327
   25SAPS   O31 3188   4.617   3.327   2.319
   25SAPS   C31 3189   4.542   3.334   2.433
   25SAPS   O32 3190   4.519   3.439   2.489
   25SAPS   C32 3191   4.472   3.199   2.484
   25SAPS   H2X 3192   4.419   3.145   2.407
   25SAPS   H2Y 3193   4.390   3.249   2.541
   25SAPS   C23 3194   5.115   3.521   2.452
   25SAPS   H3R 3195   5.020   3.499   2.506
   25SAPS   H3S 3196   5.100   3.619   2.400
   25SAPS   C24 3197   5.227   3.543   2.553
   25SAPS   H4R 3198   5.208   3.638   2.607
   25SAPS   H4S 3199   5.322   3.556   2.495
   25SAPS   C25 3200   5.243   3.428   2.648
   25SAPS   H5R 3201   5.291   3.338   2.607
   25SAPS   C26 3202   5.199   3.425   2.775
   25SAPS   H6R 3203   5.223   3.336   2.836
   25SAPS   C27 3204   5.125   3.534   2.849
   25SAPS   H7R 3205   5.080   3.607   2.778
   25SAPS   H7S 3206   5.195   3.591   2.913
   25SAPS   C28 3207   5.014   3.470   2.928
   25SAPS   H8R 3208   4.950   3.404   2.867
   25SAPS   C29 3209   4.988   3.479   3.059
   25SAPS   H9R 3210   4.901   3.425   3.099
   25SAPS  C210 3211   5.062   3.556   3.165
   25SAPS  H10R 3212   4.990   3.623   3.218
   25SAPS  H10S 3213   5.140   3.622   3.122
   25SAPS  C211 3214   5.124   3.454   3.256
   25SAPS  H11R 3215   5.198   3.388   3.208
   25SAPS  C212 3216   5.099   3.438   3.388
   25SAPS  H12R 3217   5.154   3.359   3.442
   25SAPS  C213 3218   5.003   3.518   3.473
   25SAPS  H13R 3219   4.975   3.456   3.561
   25SAPS  H13S 3220   4.908   3.537   3.418
   25SAPS  C214 3221   5.065   3.649   3.515
   25SAPS  H14R 3222   5.057   3.732   3.442
   25SAPS  C215 3223   5.130   3.670   3.631
   25SAPS  H15R 3224   5.176   3.767   3.652
   25SAPS  C216 3225   5.149   3.561   3.733
   25SAPS  H16R 3226   5.192   3.471   3.684
   25SAPS  H16S 3227   5.051   3.532   3.777
   25SAPS  C217 3228   5.244   3.595   3.849
   25SAPS  H17R 3229   5.343   3.632   3.812
   25SAPS  H17S 3230   5.264   3.499   3.902
   25SAPS  C218 3231   5.192   3.692   3.954
   25SAPS  H18R 3232   5.085   3.674   3.976
   25SAPS  H18S 3233   5.203   3.796   3.917
   25SAPS  C219 3234   5.276   3.671   4.081
   25SAPS  H19R 3235   5.380   3.646   4.049
   25SAPS  H19S 3236   5.236   3.582   4.136
   25SAPS  C220 3237   5.284   3.789   4.176
   25SAPS  H20R 3238   5.188   3.806   4.228
   25SAPS  H20S 3239   5.310   3.880   4.118
   25SAPS  H20T 3240   5.362   3.772   4.252
   25SAPS   C33 3241   4.524   3.098   2.596
   25SAPS   H3X 3242   4.433   3.070   2.654
   25SAPS   H3Y 3243   4.581   3.158   2.663
   25SAPS   C34 3244   4.598   2.961   2.575
   25SAPS   H4X 3245   4.680   2.956   2.504
   25SAPS   H4Y 3246   4.522   2.888   2.539
   25SAPS   C35 3247   4.664   2.907   2.705
   25SAPS   H5X 3248   4.635   2.800   2.715
   25SAPS   H5Y 3249   4.604   2.965   2.778
   25SAPS   C36 3250   4.814   2.924   2.753
   25SAPS   H6X 3251   4.824   2.873   2.852
   25SAPS   H6Y 3252   4.834   3.030   2.772
   25SAPS   C37 3253   4.942   2.889   2.672
   25SAPS   H7X 3254   4.928   2.922   2.566
   25SAPS   H7Y 3255   4.964   2.781   2.670
   25SAPS   C38 3256   5.068   2.960   2.728
   25SAPS   H8X 3257   5.042   3.062   2.764
   25SAPS   H8Y 3258   5.142   2.973   2.645
   25SAPS   C39 3259   5.138   2.879   2.839
   25SAPS   H9X 3260   5.177   2.785   2.793
   25SAPS   H9Y 3261   5.062   2.849   2.915
   25SAPS  C310 3262   5.254   2.951   2.910
   25SAPS  H10X 3263   5.332   2.980   2.836
   25SAPS  H10Y 3264   5.300   2.878   2.980
   25SAPS  C311 3265   5.213   3.074   2.991
   25SAPS  H11X 3266   5.114   3.056   3.038
   25SAPS  H11Y 3267   5.201   3.159   2.921
   25SAPS  C312 3268   5.313   3.111   3.102
   25SAPS  H12X 3269   5.336   3.220   3.096
   25SAPS  H12Y 3270   5.409   3.057   3.087
   25SAPS  C313 3271   5.259   3.081   3.243
   25SAPS  H13X 3272   5.228   2.974   3.247
   25SAPS  H13Y 3273   5.168   3.143   3.259
   25SAPS  C314 3274   5.359   3.109   3.357
   25SAPS  H14X 3275   5.403   3.209   3.343
   25SAPS  H14Y 3276   5.442   3.035   3.352
   25SAPS  C315 3277   5.293   3.102   3.496
   25SAPS  H15X 3278   5.193   3.055   3.484
   25SAPS  H15Y 3279   5.277   3.204   3.537
   25SAPS  C316 3280   5.369   3.018   3.600
   25SAPS  H16X 3281   5.402   2.921   3.556
   25SAPS  H16Y 3282   5.299   2.993   3.683
   25SAPS  C317 3283   5.492   3.083   3.663
   25SAPS  H17X 3284   5.463   3.182   3.703
   25SAPS  H17Y 3285   5.569   3.100   3.584
   25SAPS  C318 3286   5.550   2.998   3.776
   25SAPS  H18X 3287   5.586   2.900   3.739
   25SAPS  H18Y 3288   5.473   2.980   3.854
   25SAPS  H18Z 3289   5.635   3.051   3.825
   26SAPS     N 3290   4.813   0.337   1.794
   26SAPS   HN1 3291   4.782   0.435   1.780
   26SAPS   HN2 3292   4.887   0.333   1.866
   26SAPS   HN3 3293   4.837   0.290   1.704
   26SAPS   C12 3294   4.695   0.262   1.845
   26SAPS  H12A 3295   4.634   0.328   1.906
   26SAPS   C13 3296   4.611   0.209   1.728
   26SAPS  O13A 3297   4.670   0.171   1.623
   26SAPS  O13B 3298   4.487   0.231   1.731
   26SAPS   C11 3299   4.752   0.143   1.926
   26SAPS  H11A 3300   4.848   0.168   1.976
   26SAPS  H11B 3301   4.776   0.060   1.855
   26SAPS     P 3302   4.652   0.165   2.165
   26SAPS   O13 3303   4.658   0.312   2.152
   26SAPS   O14 3304   4.539   0.106   2.238
   26SAPS   O12 3305   4.657   0.098   2.021
   26SAPS   O11 3306   4.790   0.111   2.223
   26SAPS    C1 3307   4.823  -0.028   2.211
   26SAPS    HA 3308   4.740  -0.088   2.164
   26SAPS    HB 3309   4.911  -0.039   2.145
   26SAPS    C2 3310   4.853  -0.100   2.346
   26SAPS    HS 3311   4.797  -0.195   2.341
   26SAPS   O21 3312   4.816  -0.025   2.463
   26SAPS   C21 3313   4.689  -0.031   2.499
   26SAPS   O22 3314   4.602  -0.098   2.447
   26SAPS   C22 3315   4.680   0.030   2.640
   26SAPS   H2R 3316   4.652  -0.052   2.709
   26SAPS   H2S 3317   4.779   0.067   2.670
   26SAPS    C3 3318   5.004  -0.140   2.362
   26SAPS    HX 3319   5.046  -0.170   2.264
   26SAPS    HY 3320   5.009  -0.230   2.427
   26SAPS   O31 3321   5.084  -0.037   2.424
   26SAPS   C31 3322   5.122   0.061   2.343
   26SAPS   O32 3323   5.125   0.056   2.221
   26SAPS   C32 3324   5.153   0.185   2.424
   26SAPS   H2X 3325   5.237   0.235   2.371
   26SAPS   H2Y 3326   5.192   0.155   2.523
   26SAPS   C23 3327   4.579   0.145   2.651
   26SAPS   H3R 3328   4.479   0.096   2.653
   26SAPS   H3S 3329   4.585   0.212   2.562
   26SAPS   C24 3330   4.590   0.224   2.782
   26SAPS   H4R 3331   4.667   0.175   2.847
   26SAPS   H4S 3332   4.498   0.207   2.837
   26SAPS   C25 3333   4.609   0.373   2.772
   26SAPS   H5R 3334   4.604   0.416   2.670
   26SAPS   C26 3335   4.626   0.451   2.880
   26SAPS   H6R 3336   4.637   0.560   2.867
   26SAPS   C27 3337   4.629   0.397   3.021
   26SAPS   H7R 3338   4.686   0.302   3.026
   26SAPS   H7S 3339   4.525   0.370   3.049
   26SAPS   C28 3340   4.682   0.488   3.128
   26SAPS   H8R 3341   4.777   0.457   3.174
   26SAPS   C29 3342   4.624   0.602   3.170
   26SAPS   H9R 3343   4.668   0.654   3.256
   26SAPS  C210 3344   4.494   0.658   3.117
   26SAPS  H10R 3345   4.413   0.584   3.133
   26SAPS  H10S 3346   4.500   0.674   3.008
   26SAPS  C211 3347   4.459   0.789   3.184
   26SAPS  H11R 3348   4.480   0.880   3.126
   26SAPS  C212 3349   4.405   0.800   3.306
   26SAPS  H12R 3350   4.384   0.900   3.347
   26SAPS  C213 3351   4.372   0.681   3.394
   26SAPS  H13R 3352   4.457   0.610   3.395
   26SAPS  H13S 3353   4.287   0.625   3.349
   26SAPS  C214 3354   4.333   0.724   3.533
   26SAPS  H14R 3355   4.255   0.801   3.537
   26SAPS  C215 3356   4.378   0.674   3.649
   26SAPS  H15R 3357   4.335   0.711   3.744
   26SAPS  C216 3358   4.478   0.562   3.665
   26SAPS  H16R 3359   4.558   0.591   3.737
   26SAPS  H16S 3360   4.529   0.537   3.570
   26SAPS  C217 3361   4.406   0.436   3.716
   26SAPS  H17R 3362   4.461   0.346   3.680
   26SAPS  H17S 3363   4.303   0.430   3.673
   26SAPS  C218 3364   4.399   0.431   3.869
   26SAPS  H18R 3365   4.309   0.373   3.901
   26SAPS  H18S 3366   4.390   0.534   3.910
   26SAPS  C219 3367   4.523   0.363   3.925
   26SAPS  H19R 3368   4.612   0.412   3.878
   26SAPS  H19S 3369   4.518   0.257   3.894
   26SAPS  C220 3370   4.541   0.368   4.076
   26SAPS  H20R 3371   4.536   0.473   4.113
   26SAPS  H20S 3372   4.640   0.325   4.105
   26SAPS  H20T 3373   4.461   0.307   4.124
   26SAPS   C33 3374   5.030   0.277   2.433
   26SAPS   H3X 3375   4.965   0.269   2.342
   26SAPS   H3Y 3376   5.063   0.383   2.442
   26SAPS   C34 3377   4.945   0.242   2.555
   26SAPS   H4X 3378   4.949   0.132   2.569
   26SAPS   H4Y 3379   4.839   0.273   2.541
   26SAPS   C35 3380   5.004   0.309   2.677
   26SAPS   H5X 3381   4.991   0.419   2.666
   26SAPS   H5Y 3382   5.112   0.285   2.677
   26SAPS   C36 3383   4.948   0.262   2.809
   26SAPS   H6X 3384   4.839   0.263   2.803
   26SAPS   H6Y 3385   4.974   0.336   2.888
   26SAPS   C37 3386   4.994   0.122   2.852
   26SAPS   H7X 3387   5.105   0.112   2.840
   26SAPS   H7Y 3388   4.946   0.045   2.787
   26SAPS   C38 3389   4.955   0.098   2.998
   26SAPS   H8X 3390   4.858   0.150   3.015
   26SAPS   H8Y 3391   5.030   0.146   3.064
   26SAPS   C39 3392   4.938  -0.049   3.035
   26SAPS   H9X 3393   5.035  -0.101   3.020
   26SAPS   H9Y 3394   4.863  -0.099   2.970
   26SAPS  C310 3395   4.897  -0.063   3.183
   26SAPS  H10X 3396   4.968   0.000   3.241
   26SAPS  H10Y 3397   4.912  -0.168   3.217
   26SAPS  C311 3398   4.754  -0.018   3.215
   26SAPS  H11X 3399   4.682  -0.102   3.202
   26SAPS  H11Y 3400   4.720   0.062   3.146
   26SAPS  C312 3401   4.740   0.032   3.358
   26SAPS  H12X 3402   4.632   0.041   3.384
   26SAPS  H12Y 3403   4.784   0.135   3.360
   26SAPS  C313 3404   4.812  -0.055   3.462
   26SAPS  H13X 3405   4.921  -0.053   3.444
   26SAPS  H13Y 3406   4.776  -0.160   3.452
   26SAPS  C314 3407   4.790  -0.012   3.608
   26SAPS  H14X 3408   4.866  -0.062   3.673
   26SAPS  H14Y 3409   4.691  -0.049   3.641
   26SAPS  C315 3410   4.793   0.139   3.629
   26SAPS  H15X 3411   4.734   0.191   3.550
   26SAPS  H15Y 3412   4.897   0.176   3.624
   26SAPS  C316 3413   4.724   0.181   3.758
   26SAPS  H16X 3414   4.620   0.141   3.755
   26SAPS  H16Y 3415   4.719   0.292   3.757
   26SAPS  C317 3416   4.792   0.136   3.888
   26SAPS  H17X 3417   4.836   0.035   3.875
   26SAPS  H17Y 3418   4.714   0.128   3.968
   26SAPS  C318 3419   4.897   0.235   3.934
   26SAPS  H18X 3420   4.953   0.195   4.021
   26SAPS  H18Y 3421   4.849   0.331   3.964
   26SAPS  H18Z 3422   4.968   0.258   3.852
   27SAPE     N 3423   1.902   2.874   5.725
   27SAPE   HN1 3424   1.979   2.942   5.709
   27SAPE   HN2 3425   1.923   2.785   5.675
   27SAPE   HN3 3426   1.814   2.915   5.686
   27SAPE   C12 3427   1.888   2.845   5.873
   27SAPE  H12A 3428   1.804   2.773   5.885
   27SAPE  H12B 3429   1.863   2.939   5.926
   27SAPE   C11 3430   2.014   2.784   5.934
   27SAPE  H11A 3431   2.090   2.865   5.952
   27SAPE  H11B 3432   2.059   2.707   5.867
   27SAPE     P 3433   2.082   2.675   6.160
   27SAPE   O13 3434   2.176   2.785   6.191
   27SAPE   O14 3435   2.021   2.602   6.275
   27SAPE   O12 3436   1.974   2.723   6.055
   27SAPE   O11 3437   2.163   2.573   6.074
   27SAPE    C1 3438   2.113   2.452   6.019
   27SAPE    HA 3439   2.079   2.383   6.100
   27SAPE    HB 3440   2.029   2.471   5.949
   27SAPE    C2 3441   2.228   2.385   5.939
   27SAPE    HS 3442   2.306   2.357   6.014
   27SAPE   O21 3443   2.277   2.481   5.843
   27SAPE   C21 3444   2.383   2.550   5.882
   27SAPE   O22 3445   2.462   2.515   5.969
   27SAPE   C22 3446   2.393   2.680   5.800
   27SAPE   H2R 3447   2.349   2.762   5.860
   27SAPE   H2S 3448   2.500   2.702   5.786
   27SAPE    C3 3449   2.186   2.254   5.868
   27SAPE    HX 3450   2.135   2.184   5.938
   27SAPE    HY 3451   2.282   2.205   5.838
   27SAPE   O31 3452   2.100   2.283   5.755
   27SAPE   C31 3453   2.153   2.240   5.640
   27SAPE   O32 3454   2.157   2.124   5.603
   27SAPE   C32 3455   2.220   2.357   5.567
   27SAPE   H2X 3456   2.328   2.346   5.589
   27SAPE   H2Y 3457   2.182   2.451   5.612
   27SAPE   C23 3458   2.324   2.673   5.661
   27SAPE   H3R 3459   2.215   2.655   5.676
   27SAPE   H3S 3460   2.365   2.588   5.603
   27SAPE   C24 3461   2.335   2.800   5.574
   27SAPE   H4R 3462   2.294   2.885   5.632
   27SAPE   H4S 3463   2.268   2.787   5.485
   27SAPE   C25 3464   2.474   2.835   5.527
   27SAPE   H5R 3465   2.534   2.891   5.601
   27SAPE   C26 3466   2.531   2.809   5.408
   27SAPE   H6R 3467   2.633   2.846   5.391
   27SAPE   C27 3468   2.472   2.735   5.290
   27SAPE   H7R 3469   2.389   2.669   5.323
   27SAPE   H7S 3470   2.549   2.668   5.248
   27SAPE   C28 3471   2.418   2.828   5.184
   27SAPE   H8R 3472   2.388   2.926   5.221
   27SAPE   C29 3473   2.406   2.803   5.052
   27SAPE   H9R 3474   2.361   2.883   4.990
   27SAPE  C210 3475   2.443   2.677   4.977
   27SAPE  H10R 3476   2.385   2.591   5.017
   27SAPE  H10S 3477   2.550   2.653   4.994
   27SAPE  C211 3478   2.420   2.696   4.829
   27SAPE  H11R 3479   2.486   2.772   4.783
   27SAPE  C212 3480   2.333   2.632   4.748
   27SAPE  H12R 3481   2.331   2.659   4.641
   27SAPE  C213 3482   2.235   2.524   4.785
   27SAPE  H13R 3483   2.144   2.534   4.722
   27SAPE  H13S 3484   2.199   2.538   4.890
   27SAPE  C214 3485   2.295   2.386   4.775
   27SAPE  H14R 3486   2.396   2.377   4.819
   27SAPE  C215 3487   2.241   2.276   4.720
   27SAPE  H15R 3488   2.300   2.183   4.719
   27SAPE  C216 3489   2.106   2.261   4.655
   27SAPE  H16R 3490   2.045   2.354   4.662
   27SAPE  H16S 3491   2.048   2.182   4.707
   27SAPE  C217 3492   2.119   2.222   4.506
   27SAPE  H17R 3493   2.019   2.187   4.471
   27SAPE  H17S 3494   2.190   2.137   4.495
   27SAPE  C218 3495   2.163   2.339   4.418
   27SAPE  H18R 3496   2.260   2.379   4.454
   27SAPE  H18S 3497   2.088   2.421   4.427
   27SAPE  C219 3498   2.177   2.302   4.270
   27SAPE  H19R 3499   2.080   2.263   4.232
   27SAPE  H19S 3500   2.251   2.219   4.259
   27SAPE  C220 3501   2.220   2.421   4.186
   27SAPE  H20R 3502   2.153   2.508   4.206
   27SAPE  H20S 3503   2.216   2.398   4.077
   27SAPE  H20T 3504   2.324   2.453   4.212
   27SAPE   C33 3505   2.202   2.364   5.413
   27SAPE   H3X 3506   2.148   2.274   5.376
   27SAPE   H3Y 3507   2.304   2.359   5.367
   27SAPE   C34 3508   2.133   2.492   5.362
   27SAPE   H4X 3509   2.191   2.581   5.392
   27SAPE   H4Y 3510   2.031   2.500   5.406
   27SAPE   C35 3511   2.122   2.488   5.208
   27SAPE   H5X 3512   2.105   2.381   5.181
   27SAPE   H5Y 3513   2.219   2.517   5.162
   27SAPE   C36 3514   2.006   2.566   5.145
   27SAPE   H6X 3515   1.921   2.580   5.214
   27SAPE   H6Y 3516   1.969   2.501   5.062
   27SAPE   C37 3517   2.045   2.699   5.078
   27SAPE   H7X 3518   2.149   2.688   5.039
   27SAPE   H7Y 3519   2.046   2.783   5.151
   27SAPE   C38 3520   1.955   2.731   4.957
   27SAPE   H8X 3521   1.852   2.755   4.989
   27SAPE   H8Y 3522   1.950   2.638   4.896
   27SAPE   C39 3523   2.012   2.842   4.867
   27SAPE   H9X 3524   2.122   2.843   4.881
   27SAPE   H9Y 3525   1.973   2.942   4.898
   27SAPE  C310 3526   1.984   2.818   4.717
   27SAPE  H10X 3527   1.879   2.845   4.693
   27SAPE  H10Y 3528   1.996   2.709   4.697
   27SAPE  C311 3529   2.081   2.893   4.625
   27SAPE  H11X 3530   2.184   2.876   4.663
   27SAPE  H11Y 3531   2.061   3.002   4.630
   27SAPE  C312 3532   2.079   2.846   4.478
   27SAPE  H12X 3533   2.046   2.739   4.474
   27SAPE  H12Y 3534   2.182   2.850   4.438
   27SAPE  C313 3535   1.991   2.933   4.387
   27SAPE  H13X 3536   2.031   3.037   4.390
   27SAPE  H13Y 3537   1.887   2.936   4.426
   27SAPE  C314 3538   1.990   2.884   4.241
   27SAPE  H14X 3539   2.091   2.850   4.210
   27SAPE  H14Y 3540   1.962   2.970   4.176
   27SAPE  C315 3541   1.888   2.771   4.222
   27SAPE  H15X 3542   1.791   2.805   4.266
   27SAPE  H15Y 3543   1.922   2.683   4.281
   27SAPE  C316 3544   1.860   2.728   4.077
   27SAPE  H16X 3545   1.841   2.816   4.012
   27SAPE  H16Y 3546   1.768   2.666   4.079
   27SAPE  C317 3547   1.969   2.643   4.013
   27SAPE  H17X 3548   1.996   2.562   4.084
   27SAPE  H17Y 3549   2.059   2.706   3.994
   27SAPE  C318 3550   1.921   2.580   3.882
   27SAPE  H18X 3551   1.901   2.659   3.806
   27SAPE  H18Y 3552   1.827   2.524   3.899
   27SAPE  H18Z 3553   1.996   2.509   3.841
   28SAPE     N 3554   3.181   2.167   6.246
   28SAPE   HN1 3555   3.224   2.213   6.164
   28SAPE   HN2 3556   3.086   2.206   6.260
   28SAPE   HN3 3557   3.245   2.189   6.326
   28SAPE   C12 3558   3.187   2.020   6.215
   28SAPE  H12A 3559   3.130   2.003   6.122
   28SAPE  H12B 3560   3.140   1.964   6.298
   28SAPE   C11 3561   3.333   1.978   6.193
   28SAPE  H11A 3562   3.339   1.871   6.161
   28SAPE  H11B 3563   3.388   1.985   6.290
   28SAPE     P 3564   3.409   2.030   5.945
   28SAPE   O13 3565   3.458   2.152   5.878
   28SAPE   O14 3566   3.484   1.904   5.933
   28SAPE   O12 3567   3.393   2.066   6.099
   28SAPE   O11 3568   3.255   2.008   5.910
   28SAPE    C1 3569   3.201   2.061   5.788
   28SAPE    HA 3570   3.107   2.117   5.810
   28SAPE    HB 3571   3.269   2.133   5.736
   28SAPE    C2 3572   3.168   1.948   5.689
   28SAPE    HS 3573   3.104   1.875   5.744
   28SAPE   O21 3574   3.292   1.888   5.645
   28SAPE   C21 3575   3.284   1.762   5.608
   28SAPE   O22 3576   3.186   1.691   5.617
   28SAPE   C22 3577   3.412   1.725   5.536
   28SAPE   H2R 3578   3.497   1.755   5.599
   28SAPE   H2S 3579   3.414   1.615   5.521
   28SAPE    C3 3580   3.086   1.999   5.566
   28SAPE    HX 3581   2.980   2.010   5.599
   28SAPE    HY 3582   3.089   1.918   5.491
   28SAPE   O31 3583   3.139   2.117   5.503
   28SAPE   C31 3584   3.059   2.223   5.498
   28SAPE   O32 3585   2.956   2.238   5.561
   28SAPE   C32 3586   3.107   2.324   5.394
   28SAPE   H2X 3587   3.126   2.421   5.445
   28SAPE   H2Y 3588   3.021   2.338   5.326
   28SAPE   C23 3589   3.416   1.800   5.401
   28SAPE   H3R 3590   3.416   1.910   5.421
   28SAPE   H3S 3591   3.325   1.778   5.341
   28SAPE   C24 3592   3.542   1.768   5.319
   28SAPE   H4R 3593   3.629   1.762   5.388
   28SAPE   H4S 3594   3.560   1.853   5.251
   28SAPE   C25 3595   3.524   1.640   5.242
   28SAPE   H5R 3596   3.461   1.565   5.291
   28SAPE   C26 3597   3.579   1.611   5.123
   28SAPE   H6R 3598   3.555   1.514   5.077
   28SAPE   C27 3599   3.670   1.697   5.039
   28SAPE   H7R 3600   3.695   1.641   4.946
   28SAPE   H7S 3601   3.766   1.705   5.094
   28SAPE   C28 3602   3.629   1.837   4.998
   28SAPE   H8R 3603   3.712   1.910   5.004
   28SAPE   C29 3604   3.509   1.883   4.959
   28SAPE   H9R 3605   3.499   1.991   4.938
   28SAPE  C210 3606   3.379   1.808   4.943
   28SAPE  H10R 3607   3.392   1.699   4.959
   28SAPE  H10S 3608   3.345   1.818   4.838
   28SAPE  C211 3609   3.272   1.861   5.036
   28SAPE  H11R 3610   3.265   1.808   5.132
   28SAPE  C212 3611   3.188   1.962   5.009
   28SAPE  H12R 3612   3.115   1.992   5.086
   28SAPE  C213 3613   3.182   2.044   4.883
   28SAPE  H13R 3614   3.279   2.042   4.829
   28SAPE  H13S 3615   3.166   2.149   4.914
   28SAPE  C214 3616   3.069   2.008   4.789
   28SAPE  H14R 3617   2.992   1.941   4.828
   28SAPE  C215 3618   3.057   2.054   4.663
   28SAPE  H15R 3619   2.969   2.025   4.603
   28SAPE  C216 3620   3.156   2.147   4.597
   28SAPE  H16R 3621   3.256   2.099   4.592
   28SAPE  H16S 3622   3.168   2.240   4.658
   28SAPE  C217 3623   3.116   2.189   4.454
   28SAPE  H17R 3624   3.195   2.259   4.419
   28SAPE  H17S 3625   3.020   2.244   4.455
   28SAPE  C218 3626   3.108   2.072   4.355
   28SAPE  H18R 3627   3.017   2.013   4.376
   28SAPE  H18S 3628   3.194   2.004   4.372
   28SAPE  C219 3629   3.110   2.113   4.206
   28SAPE  H19R 3630   3.022   2.177   4.183
   28SAPE  H19S 3631   3.101   2.020   4.146
   28SAPE  C220 3632   3.238   2.186   4.164
   28SAPE  H20R 3633   3.252   2.179   4.054
   28SAPE  H20S 3634   3.327   2.141   4.214
   28SAPE  H20T 3635   3.234   2.293   4.192
   28SAPE   C33 3636   3.229   2.280   5.311
   28SAPE   H3X 3637   3.228   2.170   5.292
   28SAPE   H3Y 3638   3.322   2.303   5.368
   28SAPE   C34 3639   3.233   2.347   5.174
   28SAPE   H4X 3640   3.224   2.457   5.184
   28SAPE   H4Y 3641   3.147   2.309   5.113
   28SAPE   C35 3642   3.364   2.315   5.102
   28SAPE   H5X 3643   3.383   2.205   5.109
   28SAPE   H5Y 3644   3.447   2.367   5.156
   28SAPE   C36 3645   3.367   2.357   4.956
   28SAPE   H6X 3646   3.341   2.465   4.945
   28SAPE   H6Y 3647   3.295   2.299   4.896
   28SAPE   C37 3648   3.507   2.332   4.901
   28SAPE   H7X 3649   3.540   2.233   4.938
   28SAPE   H7Y 3650   3.576   2.407   4.948
   28SAPE   C38 3651   3.518   2.339   4.748
   28SAPE   H8X 3652   3.602   2.407   4.729
   28SAPE   H8Y 3653   3.428   2.386   4.704
   28SAPE   C39 3654   3.548   2.205   4.677
   28SAPE   H9X 3655   3.567   2.227   4.569
   28SAPE   H9Y 3656   3.457   2.142   4.684
   28SAPE  C310 3657   3.670   2.131   4.735
   28SAPE  H10X 3658   3.649   2.102   4.840
   28SAPE  H10Y 3659   3.754   2.203   4.738
   28SAPE  C311 3660   3.721   2.003   4.666
   28SAPE  H11X 3661   3.721   1.919   4.739
   28SAPE  H11Y 3662   3.827   2.023   4.639
   28SAPE  C312 3663   3.651   1.958   4.537
   28SAPE  H12X 3664   3.717   1.885   4.484
   28SAPE  H12Y 3665   3.638   2.045   4.470
   28SAPE  C313 3666   3.517   1.886   4.557
   28SAPE  H13X 3667   3.460   1.932   4.640
   28SAPE  H13Y 3668   3.535   1.780   4.583
   28SAPE  C314 3669   3.433   1.895   4.429
   28SAPE  H14X 3670   3.400   2.001   4.418
   28SAPE  H14Y 3671   3.343   1.833   4.440
   28SAPE  C315 3672   3.507   1.855   4.300
   28SAPE  H15X 3673   3.558   1.757   4.316
   28SAPE  H15Y 3674   3.585   1.930   4.277
   28SAPE  C316 3675   3.410   1.844   4.182
   28SAPE  H16X 3676   3.308   1.874   4.217
   28SAPE  H16Y 3677   3.404   1.739   4.147
   28SAPE  C317 3678   3.446   1.935   4.064
   28SAPE  H17X 3679   3.475   2.035   4.103
   28SAPE  H17Y 3680   3.356   1.947   4.000
   28SAPE  C318 3681   3.559   1.878   3.979
   28SAPE  H18X 3682   3.575   1.940   3.888
   28SAPE  H18Y 3683   3.533   1.775   3.947
   28SAPE  H18Z 3684   3.654   1.875   4.036
   29SAPE     N 3685   2.695   3.913   5.995
   29SAPE   HN1 3686   2.787   3.862   6.012
   29SAPE   HN2 3687   2.615   3.848   6.005
   29SAPE   HN3 3688   2.703   3.936   5.893
   29SAPE   C12 3689   2.694   4.040   6.078
   29SAPE  H12A 3690   2.632   4.022   6.168
   29SAPE  H12B 3691   2.647   4.119   6.017
   29SAPE   C11 3692   2.835   4.087   6.121
   29SAPE  H11A 3693   2.873   4.027   6.207
   29SAPE  H11B 3694   2.827   4.192   6.158
   29SAPE     P 3695   3.028   3.969   5.990
   29SAPE   O13 3696   3.134   3.982   6.091
   29SAPE   O14 3697   2.945   3.846   5.986
   29SAPE   O12 3698   2.926   4.087   6.012
   29SAPE   O11 3699   3.087   3.999   5.846
   29SAPE    C1 3700   3.044   4.115   5.775
   29SAPE    HA 3701   3.045   4.206   5.839
   29SAPE    HB 3702   3.114   4.132   5.690
   29SAPE    C2 3703   2.902   4.094   5.716
   29SAPE    HS 3704   2.832   4.078   5.801
   29SAPE   O21 3705   2.909   3.982   5.626
   29SAPE   C21 3706   2.806   3.901   5.632
   29SAPE   O22 3707   2.720   3.899   5.720
   29SAPE   C22 3708   2.802   3.817   5.505
   29SAPE   H2R 3709   2.696   3.793   5.485
   29SAPE   H2S 3710   2.839   3.882   5.423
   29SAPE    C3 3711   2.848   4.219   5.643
   29SAPE    HX 3712   2.935   4.283   5.616
   29SAPE    HY 3713   2.787   4.279   5.715
   29SAPE   O31 3714   2.764   4.179   5.532
   29SAPE   C31 3715   2.817   4.203   5.412
   29SAPE   O32 3716   2.910   4.279   5.390
   29SAPE   C32 3717   2.742   4.121   5.307
   29SAPE   H2X 3718   2.647   4.171   5.282
   29SAPE   H2Y 3719   2.717   4.022   5.346
   29SAPE   C23 3720   2.888   3.689   5.501
   29SAPE   H3R 3721   2.836   3.610   5.560
   29SAPE   H3S 3722   2.987   3.704   5.550
   29SAPE   C24 3723   2.907   3.643   5.355
   29SAPE   H4R 3724   2.813   3.665   5.299
   29SAPE   H4S 3725   2.919   3.532   5.356
   29SAPE   C25 3726   3.027   3.704   5.287
   29SAPE   H5R 3727   3.107   3.733   5.357
   29SAPE   C26 3728   3.045   3.731   5.156
   29SAPE   H6R 3729   3.139   3.779   5.124
   29SAPE   C27 3730   2.944   3.705   5.047
   29SAPE   H7R 3731   2.877   3.794   5.044
   29SAPE   H7S 3732   2.878   3.619   5.075
   29SAPE   C28 3733   2.997   3.684   4.907
   29SAPE   H8R 3734   3.106   3.686   4.893
   29SAPE   C29 3735   2.917   3.666   4.801
   29SAPE   H9R 3736   2.960   3.649   4.701
   29SAPE  C210 3737   2.767   3.665   4.814
   29SAPE  H10R 3738   2.735   3.743   4.887
   29SAPE  H10S 3739   2.737   3.569   4.859
   29SAPE  C211 3740   2.691   3.681   4.685
   29SAPE  H11R 3741   2.719   3.611   4.605
   29SAPE  C212 3742   2.593   3.770   4.662
   29SAPE  H12R 3743   2.545   3.771   4.564
   29SAPE  C213 3744   2.540   3.874   4.759
   29SAPE  H13R 3745   2.509   3.824   4.854
   29SAPE  H13S 3746   2.445   3.916   4.718
   29SAPE  C214 3747   2.633   3.989   4.792
   29SAPE  H14R 3748   2.675   3.987   4.893
   29SAPE  C215 3749   2.666   4.090   4.709
   29SAPE  H15R 3750   2.735   4.169   4.744
   29SAPE  C216 3751   2.615   4.105   4.568
   29SAPE  H16R 3752   2.534   4.181   4.565
   29SAPE  H16S 3753   2.568   4.010   4.535
   29SAPE  C217 3754   2.719   4.140   4.460
   29SAPE  H17R 3755   2.672   4.107   4.365
   29SAPE  H17S 3756   2.813   4.082   4.475
   29SAPE  C218 3757   2.753   4.289   4.449
   29SAPE  H18R 3758   2.847   4.304   4.506
   29SAPE  H18S 3759   2.677   4.349   4.501
   29SAPE  C219 3760   2.768   4.344   4.306
   29SAPE  H19R 3761   2.837   4.431   4.311
   29SAPE  H19S 3762   2.670   4.384   4.271
   29SAPE  C220 3763   2.819   4.247   4.201
   29SAPE  H20R 3764   2.922   4.214   4.228
   29SAPE  H20S 3765   2.825   4.298   4.102
   29SAPE  H20T 3766   2.753   4.159   4.188
   29SAPE   C33 3767   2.825   4.113   5.178
   29SAPE   H3X 3768   2.834   4.215   5.137
   29SAPE   H3Y 3769   2.772   4.051   5.103
   29SAPE   C34 3770   2.962   4.050   5.207
   29SAPE   H4X 3771   2.942   3.944   5.229
   29SAPE   H4Y 3772   3.011   4.091   5.298
   29SAPE   C35 3773   3.063   4.070   5.095
   29SAPE   H5X 3774   3.032   4.004   5.012
   29SAPE   H5Y 3775   3.162   4.035   5.131
   29SAPE   C36 3776   3.073   4.217   5.054
   29SAPE   H6X 3777   3.071   4.277   5.148
   29SAPE   H6Y 3778   2.986   4.249   4.993
   29SAPE   C37 3779   3.202   4.253   4.981
   29SAPE   H7X 3780   3.283   4.199   5.033
   29SAPE   H7Y 3781   3.223   4.361   4.995
   29SAPE   C38 3782   3.203   4.222   4.831
   29SAPE   H8X 3783   3.302   4.250   4.787
   29SAPE   H8Y 3784   3.126   4.286   4.783
   29SAPE   C39 3785   3.169   4.077   4.795
   29SAPE   H9X 3786   3.064   4.059   4.828
   29SAPE   H9Y 3787   3.236   4.007   4.849
   29SAPE  C310 3788   3.169   4.049   4.645
   29SAPE  H10X 3789   3.271   4.051   4.602
   29SAPE  H10Y 3790   3.110   4.131   4.598
   29SAPE  C311 3791   3.097   3.918   4.614
   29SAPE  H11X 3792   3.004   3.917   4.675
   29SAPE  H11Y 3793   3.158   3.830   4.644
   29SAPE  C312 3794   3.056   3.910   4.467
   29SAPE  H12X 3795   3.141   3.879   4.404
   29SAPE  H12Y 3796   3.027   4.014   4.438
   29SAPE  C313 3797   2.935   3.818   4.446
   29SAPE  H13X 3798   2.868   3.828   4.535
   29SAPE  H13Y 3799   2.970   3.713   4.443
   29SAPE  C314 3800   2.848   3.849   4.324
   29SAPE  H14X 3801   2.761   3.910   4.356
   29SAPE  H14Y 3802   2.804   3.754   4.285
   29SAPE  C315 3803   2.917   3.924   4.210
   29SAPE  H15X 3804   2.967   4.017   4.244
   29SAPE  H15Y 3805   2.839   3.955   4.137
   29SAPE  C316 3806   3.020   3.838   4.138
   29SAPE  H16X 3807   3.123   3.868   4.165
   29SAPE  H16Y 3808   3.008   3.732   4.172
   29SAPE  C317 3809   2.998   3.843   3.988
   29SAPE  H17X 3810   2.890   3.852   3.963
   29SAPE  H17Y 3811   3.029   3.744   3.951
   29SAPE  C318 3812   3.078   3.951   3.915
   29SAPE  H18X 3813   3.016   4.002   3.839
   29SAPE  H18Y 3814   3.165   3.905   3.862
   29SAPE  H18Z 3815   3.118   4.027   3.985
   30SAPE     N 3816   3.644   4.295   5.895
   30SAPE   HN1 3817   3.703   4.248   5.969
   30SAPE   HN2 3818   3.711   4.313   5.817
   30SAPE   HN3 3819   3.603   4.383   5.937
   30SAPE   C12 3820   3.544   4.187   5.873
   30SAPE  H12A 3821   3.531   4.173   5.765
   30SAPE  H12B 3822   3.448   4.218   5.919
   30SAPE   C11 3823   3.599   4.060   5.942
   30SAPE  H11A 3824   3.616   3.982   5.864
   30SAPE  H11B 3825   3.522   4.019   6.010
   30SAPE     P 3826   3.813   3.974   6.064
   30SAPE   O13 3827   3.868   4.014   6.194
   30SAPE   O14 3828   3.738   3.846   6.063
   30SAPE   O12 3829   3.718   4.091   6.017
   30SAPE   O11 3830   3.927   3.969   5.953
   30SAPE    C1 3831   4.027   3.867   5.965
   30SAPE    HA 3832   4.126   3.914   5.946
   30SAPE    HB 3833   4.035   3.823   6.067
   30SAPE    C2 3834   4.009   3.749   5.863
   30SAPE    HS 3835   4.103   3.690   5.866
   30SAPE   O21 3836   3.985   3.796   5.730
   30SAPE   C21 3837   4.080   3.871   5.681
   30SAPE   O22 3838   4.197   3.869   5.715
   30SAPE   C22 3839   4.025   3.954   5.567
   30SAPE   H2R 3840   4.110   4.015   5.528
   30SAPE   H2S 3841   3.992   3.886   5.487
   30SAPE    C3 3842   3.891   3.653   5.897
   30SAPE    HX 3843   3.796   3.710   5.883
   30SAPE    HY 3844   3.898   3.626   6.004
   30SAPE   O31 3845   3.898   3.534   5.815
   30SAPE   C31 3846   3.810   3.529   5.713
   30SAPE   O32 3847   3.711   3.598   5.700
   30SAPE   C32 3848   3.855   3.421   5.616
   30SAPE   H2X 3849   3.783   3.336   5.624
   30SAPE   H2Y 3850   3.955   3.384   5.645
   30SAPE   C23 3851   3.910   4.049   5.610
   30SAPE   H3R 3852   3.887   4.116   5.523
   30SAPE   H3S 3853   3.946   4.113   5.694
   30SAPE   C24 3854   3.776   3.985   5.651
   30SAPE   H4R 3855   3.708   4.069   5.677
   30SAPE   H4S 3856   3.791   3.926   5.744
   30SAPE   C25 3857   3.717   3.898   5.544
   30SAPE   H5R 3858   3.779   3.811   5.519
   30SAPE   C26 3859   3.598   3.913   5.483
   30SAPE   H6R 3860   3.573   3.845   5.400
   30SAPE   C27 3861   3.496   4.021   5.507
   30SAPE   H7R 3862   3.479   4.028   5.617
   30SAPE   H7S 3863   3.398   3.989   5.465
   30SAPE   C28 3864   3.533   4.156   5.452
   30SAPE   H8R 3865   3.532   4.239   5.524
   30SAPE   C29 3866   3.569   4.183   5.326
   30SAPE   H9R 3867   3.592   4.288   5.301
   30SAPE  C210 3868   3.579   4.084   5.212
   30SAPE  H10R 3869   3.523   3.991   5.235
   30SAPE  H10S 3870   3.686   4.055   5.198
   30SAPE  C211 3871   3.526   4.143   5.085
   30SAPE  H11R 3872   3.507   4.251   5.086
   30SAPE  C212 3873   3.505   4.078   4.969
   30SAPE  H12R 3874   3.467   4.136   4.884
   30SAPE  C213 3875   3.529   3.932   4.939
   30SAPE  H13R 3876   3.442   3.888   4.886
   30SAPE  H13S 3877   3.547   3.872   5.030
   30SAPE  C214 3878   3.652   3.937   4.853
   30SAPE  H14R 3879   3.747   3.923   4.907
   30SAPE  C215 3880   3.655   3.962   4.720
   30SAPE  H15R 3881   3.753   3.983   4.676
   30SAPE  C216 3882   3.538   3.989   4.630
   30SAPE  H16R 3883   3.489   4.085   4.658
   30SAPE  H16S 3884   3.461   3.908   4.642
   30SAPE  C217 3885   3.577   3.997   4.481
   30SAPE  H17R 3886   3.483   4.014   4.423
   30SAPE  H17S 3887   3.619   3.899   4.448
   30SAPE  C218 3888   3.675   4.110   4.449
   30SAPE  H18R 3889   3.776   4.084   4.488
   30SAPE  H18S 3890   3.642   4.202   4.503
   30SAPE  C219 3891   3.686   4.143   4.299
   30SAPE  H19R 3892   3.756   4.229   4.287
   30SAPE  H19S 3893   3.586   4.176   4.263
   30SAPE  C220 3894   3.736   4.027   4.213
   30SAPE  H20R 3895   3.673   3.937   4.226
   30SAPE  H20S 3896   3.841   4.001   4.240
   30SAPE  H20T 3897   3.734   4.056   4.106
   30SAPE   C33 3898   3.859   3.470   5.470
   30SAPE   H3X 3899   3.756   3.478   5.432
   30SAPE   H3Y 3900   3.910   3.388   5.414
   30SAPE   C34 3901   3.937   3.600   5.438
   30SAPE   H4X 3902   4.045   3.576   5.431
   30SAPE   H4Y 3903   3.926   3.672   5.521
   30SAPE   C35 3904   3.890   3.664   5.305
   30SAPE   H5X 3905   3.806   3.733   5.323
   30SAPE   H5Y 3906   3.849   3.581   5.244
   30SAPE   C36 3907   3.997   3.731   5.217
   30SAPE   H6X 3908   4.091   3.671   5.220
   30SAPE   H6Y 3909   4.020   3.833   5.254
   30SAPE   C37 3910   3.948   3.736   5.071
   30SAPE   H7X 3911   3.848   3.785   5.068
   30SAPE   H7Y 3912   3.933   3.631   5.037
   30SAPE   C38 3913   4.040   3.804   4.969
   30SAPE   H8X 3914   4.144   3.767   4.982
   30SAPE   H8Y 3915   4.040   3.914   4.986
   30SAPE   C39 3916   3.993   3.772   4.826
   30SAPE   H9X 3917   3.881   3.770   4.827
   30SAPE   H9Y 3918   4.026   3.669   4.801
   30SAPE  C310 3919   4.036   3.869   4.715
   30SAPE  H10X 3920   4.145   3.862   4.697
   30SAPE  H10Y 3921   4.014   3.973   4.750
   30SAPE  C311 3922   3.957   3.847   4.585
   30SAPE  H11X 3923   3.964   3.937   4.521
   30SAPE  H11Y 3924   3.850   3.831   4.608
   30SAPE  C312 3925   3.997   3.724   4.501
   30SAPE  H12X 3926   3.916   3.648   4.505
   30SAPE  H12Y 3927   4.090   3.683   4.545
   30SAPE  C313 3928   4.032   3.759   4.357
   30SAPE  H13X 3929   4.138   3.790   4.364
   30SAPE  H13Y 3930   3.972   3.843   4.318
   30SAPE  C314 3931   4.035   3.645   4.255
   30SAPE  H14X 3932   3.937   3.640   4.203
   30SAPE  H14Y 3933   4.053   3.548   4.306
   30SAPE  C315 3934   4.147   3.673   4.153
   30SAPE  H15X 3935   4.242   3.693   4.209
   30SAPE  H15Y 3936   4.121   3.766   4.098
   30SAPE  C316 3937   4.177   3.565   4.051
   30SAPE  H16X 3938   4.243   3.489   4.097
   30SAPE  H16Y 3939   4.232   3.608   3.965
   30SAPE  C317 3940   4.055   3.489   4.002
   30SAPE  H17X 3941   3.991   3.457   4.087
   30SAPE  H17Y 3942   4.096   3.397   3.956
   30SAPE  C318 3943   3.973   3.565   3.901
   30SAPE  H18X 3944   3.901   3.496   3.854
   30SAPE  H18Y 3945   4.037   3.608   3.821
   30SAPE  H18Z 3946   3.915   3.647   3.949
   31SAPE     N 3947   4.681   2.885   5.884
   31SAPE   HN1 3948   4.677   2.821   5.802
   31SAPE   HN2 3949   4.737   2.971   5.865
   31SAPE   HN3 3950   4.732   2.833   5.961
   31SAPE   C12 3951   4.544   2.917   5.941
   31SAPE  H12A 3952   4.485   2.968   5.862
   31SAPE  H12B 3953   4.558   2.987   6.026
   31SAPE   C11 3954   4.471   2.791   5.993
   31SAPE  H11A 3955   4.458   2.715   5.912
   31SAPE  H11B 3956   4.368   2.823   6.021
   31SAPE     P 3957   4.661   2.646   6.108
   31SAPE   O13 3958   4.776   2.735   6.082
   31SAPE   O14 3959   4.663   2.556   6.226
   31SAPE   O12 3960   4.532   2.735   6.111
   31SAPE   O11 3961   4.630   2.567   5.978
   31SAPE    C1 3962   4.715   2.460   5.943
   31SAPE    HA 3963   4.766   2.415   6.031
   31SAPE    HB 3964   4.650   2.383   5.898
   31SAPE    C2 3965   4.824   2.501   5.841
   31SAPE    HS 3966   4.904   2.554   5.897
   31SAPE   O21 3967   4.766   2.590   5.743
   31SAPE   C21 3968   4.859   2.639   5.662
   31SAPE   O22 3969   4.979   2.627   5.680
   31SAPE   C22 3970   4.790   2.717   5.550
   31SAPE   H2R 3971   4.776   2.642   5.469
   31SAPE   H2S 3972   4.690   2.750   5.587
   31SAPE    C3 3973   4.883   2.372   5.776
   31SAPE    HX 3974   4.962   2.336   5.845
   31SAPE    HY 3975   4.935   2.393   5.682
   31SAPE   O31 3976   4.784   2.268   5.765
   31SAPE   C31 3977   4.711   2.243   5.657
   31SAPE   O32 3978   4.728   2.286   5.545
   31SAPE   C32 3979   4.603   2.144   5.696
   31SAPE   H2X 3980   4.598   2.132   5.806
   31SAPE   H2Y 3981   4.631   2.047   5.649
   31SAPE   C23 3982   4.859   2.839   5.485
   31SAPE   H3R 3983   4.961   2.808   5.453
   31SAPE   H3S 3984   4.866   2.924   5.556
   31SAPE   C24 3985   4.781   2.878   5.356
   31SAPE   H4R 3986   4.677   2.844   5.370
   31SAPE   H4S 3987   4.820   2.814   5.275
   31SAPE   C25 3988   4.780   3.023   5.315
   31SAPE   H5R 3989   4.743   3.092   5.392
   31SAPE   C26 3990   4.803   3.070   5.191
   31SAPE   H6R 3991   4.795   3.178   5.173
   31SAPE   C27 3992   4.835   2.987   5.068
   31SAPE   H7R 3993   4.789   3.036   4.980
   31SAPE   H7S 3994   4.785   2.888   5.076
   31SAPE   C28 3995   4.983   2.971   5.043
   31SAPE   H8R 3996   5.042   3.064   5.047
   31SAPE   C29 3997   5.047   2.854   5.017
   31SAPE   H9R 3998   5.156   2.855   5.002
   31SAPE  C210 3999   4.985   2.717   5.008
   31SAPE  H10R 4000   5.049   2.653   4.944
   31SAPE  H10S 4001   4.886   2.722   4.956
   31SAPE  C211 4002   4.971   2.654   5.144
   31SAPE  H11R 4003   5.043   2.686   5.220
   31SAPE  C212 4004   4.876   2.565   5.178
   31SAPE  H12R 4005   4.866   2.536   5.283
   31SAPE  C213 4006   4.769   2.513   5.087
   31SAPE  H13R 4007   4.798   2.527   4.981
   31SAPE  H13S 4008   4.680   2.579   5.099
   31SAPE  C214 4009   4.729   2.369   5.115
   31SAPE  H14R 4010   4.688   2.348   5.216
   31SAPE  C215 4011   4.743   2.268   5.028
   31SAPE  H15R 4012   4.709   2.167   5.056
   31SAPE  C216 4013   4.800   2.284   4.890
   31SAPE  H16R 4014   4.833   2.187   4.849
   31SAPE  H16S 4015   4.892   2.347   4.897
   31SAPE  C217 4016   4.710   2.352   4.786
   31SAPE  H17R 4017   4.640   2.424   4.833
   31SAPE  H17S 4018   4.649   2.273   4.735
   31SAPE  C218 4019   4.794   2.428   4.683
   31SAPE  H18R 4020   4.865   2.356   4.639
   31SAPE  H18S 4021   4.854   2.506   4.737
   31SAPE  C219 4022   4.712   2.499   4.575
   31SAPE  H19R 4023   4.773   2.510   4.483
   31SAPE  H19S 4024   4.699   2.603   4.608
   31SAPE  C220 4025   4.576   2.436   4.540
   31SAPE  H20R 4026   4.589   2.335   4.498
   31SAPE  H20S 4027   4.523   2.498   4.464
   31SAPE  H20T 4028   4.511   2.428   4.629
   31SAPE   C33 4029   4.467   2.190   5.643
   31SAPE   H3X 4030   4.395   2.108   5.668
   31SAPE   H3Y 4031   4.468   2.195   5.533
   31SAPE   C34 4032   4.415   2.321   5.708
   31SAPE   H4X 4033   4.422   2.315   5.818
   31SAPE   H4Y 4034   4.306   2.326   5.683
   31SAPE   C35 4035   4.474   2.452   5.653
   31SAPE   H5X 4036   4.584   2.456   5.665
   31SAPE   H5Y 4037   4.433   2.536   5.714
   31SAPE   C36 4038   4.435   2.472   5.506
   31SAPE   H6X 4039   4.340   2.530   5.508
   31SAPE   H6Y 4040   4.422   2.374   5.456
   31SAPE   C37 4041   4.533   2.544   5.415
   31SAPE   H7X 4042   4.615   2.477   5.382
   31SAPE   H7Y 4043   4.575   2.622   5.481
   31SAPE   C38 4044   4.467   2.621   5.300
   31SAPE   H8X 4045   4.548   2.691   5.267
   31SAPE   H8Y 4046   4.382   2.681   5.340
   31SAPE   C39 4047   4.420   2.549   5.172
   31SAPE   H9X 4048   4.337   2.479   5.188
   31SAPE   H9Y 4049   4.502   2.487   5.132
   31SAPE  C310 4050   4.379   2.656   5.069
   31SAPE  H10X 4051   4.450   2.741   5.083
   31SAPE  H10Y 4052   4.277   2.694   5.088
   31SAPE  C311 4053   4.396   2.616   4.922
   31SAPE  H11X 4054   4.316   2.547   4.889
   31SAPE  H11Y 4055   4.492   2.561   4.914
   31SAPE  C312 4056   4.404   2.739   4.830
   31SAPE  H12X 4057   4.459   2.820   4.884
   31SAPE  H12Y 4058   4.302   2.778   4.807
   31SAPE  C313 4059   4.485   2.709   4.704
   31SAPE  H13X 4060   4.431   2.633   4.644
   31SAPE  H13Y 4061   4.580   2.666   4.742
   31SAPE  C314 4062   4.519   2.832   4.618
   31SAPE  H14X 4063   4.572   2.905   4.682
   31SAPE  H14Y 4064   4.422   2.875   4.587
   31SAPE  C315 4065   4.596   2.814   4.485
   31SAPE  H15X 4066   4.544   2.876   4.408
   31SAPE  H15Y 4067   4.590   2.710   4.450
   31SAPE  C316 4068   4.742   2.863   4.491
   31SAPE  H16X 4069   4.790   2.824   4.583
   31SAPE  H16Y 4070   4.742   2.975   4.497
   31SAPE  C317 4071   4.825   2.819   4.370
   31SAPE  H17X 4072   4.768   2.841   4.277
   31SAPE  H17Y 4073   4.838   2.709   4.375
   31SAPE  C318 4074   4.963   2.886   4.361
   31SAPE  H18X 4075   5.013   2.859   4.266
   31SAPE  H18Y 4076   5.027   2.852   4.445
   31SAPE  H18Z 4077   4.953   2.996   4.366
   32SAPE     N 4078   3.955   0.725   5.897
   32SAPE   HN1 4079   3.966   0.626   5.872
   32SAPE   HN2 4080   3.875   0.765   5.844
   32SAPE   HN3 4081   4.046   0.772   5.874
   32SAPE   C12 4082   3.934   0.732   6.046
   32SAPE  H12A 4083   3.837   0.685   6.071
   32SAPE  H12B 4084   3.931   0.839   6.076
   32SAPE   C11 4085   4.049   0.661   6.118
   32SAPE  H11A 4086   4.049   0.554   6.089
   32SAPE  H11B 4087   4.032   0.668   6.227
   32SAPE     P 4088   4.313   0.660   6.087
   32SAPE   O13 4089   4.396   0.736   6.182
   32SAPE   O14 4090   4.300   0.515   6.115
   32SAPE   O12 4091   4.171   0.726   6.086
   32SAPE   O11 4092   4.355   0.684   5.938
   32SAPE    C1 4093   4.281   0.633   5.827
   32SAPE    HA 4094   4.334   0.541   5.791
   32SAPE    HB 4095   4.179   0.600   5.853
   32SAPE    C2 4096   4.280   0.734   5.709
   32SAPE    HS 4097   4.388   0.767   5.701
   32SAPE   O21 4098   4.191   0.848   5.729
   32SAPE   C21 4099   4.222   0.941   5.635
   32SAPE   O22 4100   4.334   0.963   5.595
   32SAPE   C22 4101   4.091   0.985   5.569
   32SAPE   H2R 4102   4.015   0.907   5.588
   32SAPE   H2S 4103   4.060   1.077   5.620
   32SAPE    C3 4104   4.241   0.664   5.576
   32SAPE    HX 4105   4.295   0.568   5.574
   32SAPE    HY 4106   4.279   0.727   5.491
   32SAPE   O31 4107   4.098   0.638   5.565
   32SAPE   C31 4108   4.074   0.583   5.444
   32SAPE   O32 4109   4.158   0.567   5.359
   32SAPE   C32 4110   3.932   0.528   5.434
   32SAPE   H2X 4111   3.883   0.533   5.533
   32SAPE   H2Y 4112   3.950   0.422   5.407
   32SAPE   C23 4113   4.105   1.010   5.417
   32SAPE   H3R 4114   4.210   1.029   5.386
   32SAPE   H3S 4115   4.052   1.104   5.394
   32SAPE   C24 4116   4.046   0.897   5.330
   32SAPE   H4R 4117   3.989   0.828   5.395
   32SAPE   H4S 4118   4.130   0.838   5.286
   32SAPE   C25 4119   3.948   0.945   5.225
   32SAPE   H5R 4120   3.859   0.994   5.267
   32SAPE   C26 4121   3.958   0.933   5.091
   32SAPE   H6R 4122   3.873   0.967   5.030
   32SAPE   C27 4123   4.068   0.869   5.010
   32SAPE   H7R 4124   4.035   0.862   4.905
   32SAPE   H7S 4125   4.083   0.764   5.043
   32SAPE   C28 4126   4.201   0.937   5.024
   32SAPE   H8R 4127   4.232   0.958   5.127
   32SAPE   C29 4128   4.286   0.968   4.925
   32SAPE   H9R 4129   4.380   1.017   4.953
   32SAPE  C210 4130   4.269   0.944   4.777
   32SAPE  H10R 4131   4.285   1.041   4.728
   32SAPE  H10S 4132   4.164   0.914   4.752
   32SAPE  C211 4133   4.368   0.846   4.719
   32SAPE  H11R 4134   4.473   0.863   4.746
   32SAPE  C212 4135   4.340   0.751   4.629
   32SAPE  H12R 4136   4.423   0.690   4.588
   32SAPE  C213 4137   4.205   0.723   4.568
   32SAPE  H13R 4138   4.125   0.728   4.644
   32SAPE  H13S 4139   4.202   0.619   4.529
   32SAPE  C214 4140   4.177   0.823   4.458
   32SAPE  H14R 4141   4.105   0.902   4.484
   32SAPE  C215 4142   4.230   0.821   4.335
   32SAPE  H15R 4143   4.202   0.899   4.262
   32SAPE  C216 4144   4.328   0.719   4.284
   32SAPE  H16R 4145   4.307   0.688   4.179
   32SAPE  H16S 4146   4.324   0.627   4.346
   32SAPE  C217 4147   4.472   0.770   4.290
   32SAPE  H17R 4148   4.539   0.685   4.265
   32SAPE  H17S 4149   4.494   0.804   4.393
   32SAPE  C218 4150   4.500   0.883   4.191
   32SAPE  H18R 4151   4.452   0.977   4.226
   32SAPE  H18S 4152   4.456   0.852   4.094
   32SAPE  C219 4153   4.649   0.905   4.167
   32SAPE  H19R 4154   4.698   0.807   4.150
   32SAPE  H19S 4155   4.694   0.951   4.258
   32SAPE  C220 4156   4.675   0.994   4.047
   32SAPE  H20R 4157   4.631   0.951   3.954
   32SAPE  H20S 4158   4.785   1.004   4.032
   32SAPE  H20T 4159   4.633   1.096   4.062
   32SAPE   C33 4160   3.841   0.582   5.321
   32SAPE   H3X 4161   3.804   0.683   5.349
   32SAPE   H3Y 4162   3.753   0.514   5.314
   32SAPE   C34 4163   3.903   0.592   5.180
   32SAPE   H4X 4164   3.987   0.665   5.186
   32SAPE   H4Y 4165   3.825   0.635   5.114
   32SAPE   C35 4166   3.958   0.463   5.117
   32SAPE   H5X 4167   3.879   0.385   5.119
   32SAPE   H5Y 4168   4.043   0.428   5.180
   32SAPE   C36 4169   4.012   0.478   4.973
   32SAPE   H6X 4170   4.067   0.384   4.950
   32SAPE   H6Y 4171   4.086   0.561   4.968
   32SAPE   C37 4172   3.904   0.496   4.864
   32SAPE   H7X 4173   3.812   0.443   4.896
   32SAPE   H7Y 4174   3.940   0.448   4.770
   32SAPE   C38 4175   3.873   0.643   4.831
   32SAPE   H8X 4176   3.960   0.686   4.776
   32SAPE   H8Y 4177   3.862   0.701   4.924
   32SAPE   C39 4178   3.746   0.663   4.747
   32SAPE   H9X 4179   3.662   0.604   4.790
   32SAPE   H9Y 4180   3.764   0.625   4.645
   32SAPE  C310 4181   3.708   0.812   4.744
   32SAPE  H10X 4182   3.801   0.872   4.735
   32SAPE  H10Y 4183   3.664   0.837   4.843
   32SAPE  C311 4184   3.609   0.856   4.633
   32SAPE  H11X 4185   3.593   0.966   4.642
   32SAPE  H11Y 4186   3.511   0.806   4.652
   32SAPE  C312 4187   3.651   0.825   4.488
   32SAPE  H12X 4188   3.576   0.870   4.419
   32SAPE  H12Y 4189   3.642   0.715   4.475
   32SAPE  C313 4190   3.790   0.874   4.445
   32SAPE  H13X 4191   3.858   0.881   4.534
   32SAPE  H13Y 4192   3.782   0.976   4.402
   32SAPE  C314 4193   3.859   0.779   4.346
   32SAPE  H14X 4194   3.953   0.827   4.310
   32SAPE  H14Y 4195   3.795   0.764   4.256
   32SAPE  C315 4196   3.890   0.643   4.412
   32SAPE  H15X 4197   3.794   0.591   4.429
   32SAPE  H15Y 4198   3.937   0.661   4.511
   32SAPE  C316 4199   3.978   0.546   4.332
   32SAPE  H16X 4200   4.083   0.582   4.327
   32SAPE  H16Y 4201   3.939   0.542   4.229
   32SAPE  C317 4202   3.973   0.403   4.389
   32SAPE  H17X 4203   3.870   0.384   4.427
   32SAPE  H17Y 4204   4.041   0.398   4.477
   32SAPE  C318 4205   4.008   0.294   4.288
   32SAPE  H18X 4206   3.920   0.269   4.225
   32SAPE  H18Y 4207   4.043   0.202   4.339
   32SAPE  H18Z 4208   4.089   0.329   4.219
   33SAPE     N 4209   4.911   3.329   5.736
   33SAPE   HN1 4210   4.999   3.361   5.691
   33SAPE   HN2 4211   4.893   3.232   5.703
   33SAPE   HN3 4212   4.832   3.389   5.706
   33SAPE   C12 4213   4.930   3.337   5.886
   33SAPE  H12A 4214   4.849   3.280   5.936
   33SAPE  H12B 4215   4.920   3.445   5.913
   33SAPE   C11 4216   5.068   3.284   5.930
   33SAPE  H11A 4217   5.149   3.340   5.879
   33SAPE  H11B 4218   5.078   3.177   5.898
   33SAPE     P 4219   5.069   3.419   6.162
   33SAPE   O13 4220   4.926   3.454   6.178
   33SAPE   O14 4221   5.154   3.415   6.282
   33SAPE   O12 4222   5.084   3.288   6.072
   33SAPE   O11 4223   5.125   3.530   6.068
   33SAPE    C1 4224   5.260   3.536   6.028
   33SAPE    HA 4225   5.325   3.567   6.113
   33SAPE    HB 4226   5.298   3.439   5.989
   33SAPE    C2 4227   5.267   3.642   5.918
   33SAPE    HS 4228   5.240   3.739   5.966
   33SAPE   O21 4229   5.176   3.605   5.812
   33SAPE   C21 4230   5.093   3.700   5.773
   33SAPE   O22 4231   5.067   3.802   5.833
   33SAPE   C22 4232   5.037   3.662   5.636
   33SAPE   H2R 4233   5.121   3.680   5.565
   33SAPE   H2S 4234   5.015   3.554   5.635
   33SAPE    C3 4235   5.410   3.657   5.863
   33SAPE    HX 4236   5.480   3.663   5.948
   33SAPE    HY 4237   5.419   3.755   5.813
   33SAPE   O31 4238   5.447   3.544   5.781
   33SAPE   C31 4239   5.411   3.564   5.655
   33SAPE   O32 4240   5.364   3.667   5.610
   33SAPE   C32 4241   5.438   3.442   5.571
   33SAPE   H2X 4242   5.394   3.353   5.621
   33SAPE   H2Y 4243   5.548   3.427   5.562
   33SAPE   C23 4244   4.914   3.745   5.592
   33SAPE   H3R 4245   4.941   3.854   5.595
   33SAPE   H3S 4246   4.831   3.730   5.665
   33SAPE   C24 4247   4.863   3.712   5.450
   33SAPE   H4R 4248   4.793   3.795   5.421
   33SAPE   H4S 4249   4.801   3.620   5.454
   33SAPE   C25 4250   4.972   3.703   5.346
   33SAPE   H5R 4251   5.038   3.791   5.341
   33SAPE   C26 4252   4.998   3.600   5.263
   33SAPE   H6R 4253   5.081   3.610   5.191
   33SAPE   C27 4254   4.925   3.468   5.252
   33SAPE   H7R 4255   4.859   3.451   5.340
   33SAPE   H7S 4256   4.998   3.385   5.255
   33SAPE   C28 4257   4.841   3.460   5.127
   33SAPE   H8R 4258   4.736   3.487   5.142
   33SAPE   C29 4259   4.881   3.424   5.002
   33SAPE   H9R 4260   4.806   3.428   4.922
   33SAPE  C210 4261   5.019   3.385   4.957
   33SAPE  H10R 4262   5.075   3.339   5.042
   33SAPE  H10S 4263   5.074   3.478   4.932
   33SAPE  C211 4264   5.030   3.291   4.839
   33SAPE  H11R 4265   5.068   3.191   4.863
   33SAPE  C212 4266   5.002   3.318   4.709
   33SAPE  H12R 4267   5.021   3.239   4.634
   33SAPE  C213 4268   4.952   3.448   4.652
   33SAPE  H13R 4269   5.036   3.500   4.602
   33SAPE  H13S 4270   4.917   3.517   4.732
   33SAPE  C214 4271   4.840   3.426   4.552
   33SAPE  H14R 4272   4.800   3.324   4.544
   33SAPE  C215 4273   4.785   3.521   4.474
   33SAPE  H15R 4274   4.705   3.492   4.404
   33SAPE  C216 4275   4.825   3.667   4.471
   33SAPE  H16R 4276   4.844   3.703   4.575
   33SAPE  H16S 4277   4.741   3.728   4.431
   33SAPE  C217 4278   4.951   3.691   4.387
   33SAPE  H17R 4279   5.033   3.624   4.423
   33SAPE  H17S 4280   4.987   3.795   4.402
   33SAPE  C218 4281   4.930   3.665   4.237
   33SAPE  H18R 4282   4.881   3.567   4.221
   33SAPE  H18S 4283   5.030   3.658   4.189
   33SAPE  C219 4284   4.851   3.775   4.163
   33SAPE  H19R 4285   4.753   3.791   4.214
   33SAPE  H19S 4286   4.830   3.738   4.060
   33SAPE  C220 4287   4.925   3.909   4.152
   33SAPE  H20R 4288   5.027   3.894   4.111
   33SAPE  H20S 4289   4.933   3.959   4.251
   33SAPE  H20T 4290   4.871   3.975   4.082
   33SAPE   C33 4291   5.374   3.467   5.433
   33SAPE   H3X 4292   5.410   3.564   5.390
   33SAPE   H3Y 4293   5.264   3.475   5.445
   33SAPE   C34 4294   5.406   3.358   5.333
   33SAPE   H4X 4295   5.395   3.261   5.386
   33SAPE   H4Y 4296   5.512   3.366   5.302
   33SAPE   C35 4297   5.313   3.366   5.212
   33SAPE   H5X 4298   5.208   3.358   5.247
   33SAPE   H5Y 4299   5.332   3.281   5.143
   33SAPE   C36 4300   5.329   3.497   5.133
   33SAPE   H6X 4301   5.304   3.585   5.196
   33SAPE   H6Y 4302   5.255   3.495   5.051
   33SAPE   C37 4303   5.469   3.513   5.074
   33SAPE   H7X 4304   5.518   3.413   5.069
   33SAPE   H7Y 4305   5.531   3.577   5.141
   33SAPE   C38 4306   5.467   3.572   4.932
   33SAPE   H8X 4307   5.571   3.599   4.904
   33SAPE   H8Y 4308   5.407   3.666   4.931
   33SAPE   C39 4309   5.411   3.474   4.829
   33SAPE   H9X 4310   5.300   3.467   4.841
   33SAPE   H9Y 4311   5.452   3.372   4.848
   33SAPE  C310 4312   5.442   3.512   4.684
   33SAPE  H10X 4313   5.552   3.504   4.667
   33SAPE  H10Y 4314   5.412   3.618   4.666
   33SAPE  C311 4315   5.367   3.421   4.587
   33SAPE  H11X 4316   5.258   3.438   4.600
   33SAPE  H11Y 4317   5.388   3.314   4.614
   33SAPE  C312 4318   5.404   3.442   4.440
   33SAPE  H12X 4319   5.507   3.404   4.424
   33SAPE  H12Y 4320   5.403   3.551   4.415
   33SAPE  C313 4321   5.307   3.368   4.348
   33SAPE  H13X 4322   5.213   3.428   4.338
   33SAPE  H13Y 4323   5.279   3.271   4.394
   33SAPE  C314 4324   5.365   3.341   4.209
   33SAPE  H14X 4325   5.463   3.291   4.217
   33SAPE  H14Y 4326   5.387   3.437   4.158
   33SAPE  C315 4327   5.271   3.256   4.123
   33SAPE  H15X 4328   5.174   3.310   4.119
   33SAPE  H15Y 4329   5.253   3.158   4.172
   33SAPE  C316 4330   5.327   3.235   3.982
   33SAPE  H16X 4331   5.414   3.166   3.984
   33SAPE  H16Y 4332   5.367   3.332   3.945
   33SAPE  C317 4333   5.226   3.181   3.880
   33SAPE  H17X 4334   5.213   3.072   3.896
   33SAPE  H17Y 4335   5.269   3.196   3.779
   33SAPE  C318 4336   5.089   3.247   3.881
   33SAPE  H18X 4337   5.040   3.235   3.782
   33SAPE  H18Y 4338   5.097   3.356   3.903
   33SAPE  H18Z 4339   5.025   3.202   3.960
   34SAPE     N 4340   1.205   3.324   2.161
   34SAPE   HN1 4341   1.116   3.361   2.122
   34SAPE   HN2 4342   1.244   3.256   2.091
   34SAPE   HN3 4343   1.192   3.281   2.255
   34SAPE   C12 4344   1.309   3.432   2.159
   34SAPE  H12A 4345   1.400   3.393   2.209
   34SAPE  H12B 4346   1.271   3.522   2.210
   34SAPE   C11 4347   1.338   3.456   2.011
   34SAPE  H11A 4348   1.427   3.524   1.999
   34SAPE  H11B 4349   1.252   3.509   1.964
   34SAPE     P 4350   1.498   3.277   1.901
   34SAPE   O13 4351   1.493   3.131   1.923
   34SAPE   O14 4352   1.528   3.327   1.765
   34SAPE   O12 4353   1.355   3.330   1.946
   34SAPE   O11 4354   1.592   3.345   2.009
   34SAPE    C1 4355   1.714   3.282   2.047
   34SAPE    HA 4356   1.741   3.195   1.983
   34SAPE    HB 4357   1.797   3.355   2.035
   34SAPE    C2 4358   1.711   3.232   2.195
   34SAPE    HS 4359   1.805   3.174   2.213
   34SAPE   O21 4360   1.592   3.154   2.217
   34SAPE   C21 4361   1.608   3.026   2.192
   34SAPE   O22 4362   1.713   2.968   2.167
   34SAPE   C22 4363   1.473   2.955   2.197
   34SAPE   H2R 4364   1.391   3.029   2.202
   34SAPE   H2S 4365   1.465   2.902   2.099
   34SAPE    C3 4366   1.713   3.348   2.298
   34SAPE    HX 4367   1.647   3.429   2.259
   34SAPE    HY 4368   1.815   3.391   2.303
   34SAPE   O31 4369   1.667   3.311   2.431
   34SAPE   C31 4370   1.749   3.228   2.497
   34SAPE   O32 4371   1.842   3.166   2.452
   34SAPE   C32 4372   1.716   3.234   2.645
   34SAPE   H2X 4373   1.742   3.136   2.690
   34SAPE   H2Y 4374   1.607   3.251   2.656
   34SAPE   C23 4375   1.469   2.854   2.313
   34SAPE   H3R 4376   1.565   2.797   2.317
   34SAPE   H3S 4377   1.390   2.779   2.294
   34SAPE   C24 4378   1.443   2.924   2.447
   34SAPE   H4R 4379   1.354   2.990   2.436
   34SAPE   H4S 4380   1.530   2.991   2.469
   34SAPE   C25 4381   1.421   2.828   2.561
   34SAPE   H5R 4382   1.390   2.726   2.531
   34SAPE   C26 4383   1.438   2.854   2.692
   34SAPE   H6R 4384   1.420   2.772   2.763
   34SAPE   C27 4385   1.483   2.986   2.752
   34SAPE   H7R 4386   1.439   3.072   2.697
   34SAPE   H7S 4387   1.593   2.992   2.739
   34SAPE   C28 4388   1.453   2.997   2.900
   34SAPE   H8R 4389   1.443   2.900   2.952
   34SAPE   C29 4390   1.442   3.108   2.975
   34SAPE   H9R 4391   1.422   3.096   3.083
   34SAPE  C210 4392   1.458   3.253   2.933
   34SAPE  H10R 4393   1.501   3.260   2.832
   34SAPE  H10S 4394   1.534   3.299   3.001
   34SAPE  C211 4395   1.331   3.335   2.937
   34SAPE  H11R 4396   1.276   3.341   2.842
   34SAPE  C212 4397   1.280   3.400   3.044
   34SAPE  H12R 4398   1.187   3.457   3.032
   34SAPE  C213 4399   1.337   3.405   3.184
   34SAPE  H13R 4400   1.371   3.302   3.211
   34SAPE  H13S 4401   1.256   3.428   3.256
   34SAPE  C214 4402   1.447   3.506   3.205
   34SAPE  H14R 4403   1.439   3.598   3.145
   34SAPE  C215 4404   1.546   3.494   3.295
   34SAPE  H15R 4405   1.620   3.575   3.305
   34SAPE  C216 4406   1.565   3.378   3.390
   34SAPE  H16R 4407   1.653   3.319   3.356
   34SAPE  H16S 4408   1.478   3.309   3.388
   34SAPE  C217 4409   1.586   3.418   3.537
   34SAPE  H17R 4410   1.500   3.478   3.573
   34SAPE  H17S 4411   1.676   3.481   3.546
   34SAPE  C218 4412   1.593   3.296   3.630
   34SAPE  H18R 4413   1.655   3.217   3.582
   34SAPE  H18S 4414   1.489   3.256   3.635
   34SAPE  C219 4415   1.647   3.316   3.773
   34SAPE  H19R 4416   1.758   3.323   3.771
   34SAPE  H19S 4417   1.622   3.222   3.826
   34SAPE  C220 4418   1.590   3.432   3.855
   34SAPE  H20R 4419   1.648   3.525   3.837
   34SAPE  H20S 4420   1.598   3.409   3.964
   34SAPE  H20T 4421   1.483   3.450   3.832
   34SAPE   C33 4422   1.796   3.348   2.713
   34SAPE   H3X 4423   1.754   3.365   2.815
   34SAPE   H3Y 4424   1.780   3.442   2.656
   34SAPE   C34 4425   1.947   3.321   2.725
   34SAPE   H4X 4426   1.994   3.405   2.781
   34SAPE   H4Y 4427   1.994   3.320   2.624
   34SAPE   C35 4428   1.988   3.192   2.798
   34SAPE   H5X 4429   2.097   3.200   2.820
   34SAPE   H5Y 4430   1.975   3.105   2.730
   34SAPE   C36 4431   1.913   3.168   2.930
   34SAPE   H6X 4432   1.824   3.105   2.909
   34SAPE   H6Y 4433   1.878   3.264   2.973
   34SAPE   C37 4434   2.002   3.098   3.033
   34SAPE   H7X 4435   2.073   3.172   3.077
   34SAPE   H7Y 4436   2.062   3.020   2.980
   34SAPE   C38 4437   1.923   3.030   3.146
   34SAPE   H8X 4438   1.991   2.962   3.201
   34SAPE   H8Y 4439   1.842   2.969   3.102
   34SAPE   C39 4440   1.860   3.129   3.244
   34SAPE   H9X 4441   1.789   3.194   3.190
   34SAPE   H9Y 4442   1.943   3.192   3.283
   34SAPE  C310 4443   1.790   3.062   3.363
   34SAPE  H10X 4444   1.781   3.138   3.443
   34SAPE  H10Y 4445   1.854   2.980   3.403
   34SAPE  C311 4446   1.649   3.009   3.330
   34SAPE  H11X 4447   1.659   2.917   3.269
   34SAPE  H11Y 4448   1.597   3.086   3.267
   34SAPE  C312 4449   1.557   2.981   3.451
   34SAPE  H12X 4450   1.470   2.919   3.418
   34SAPE  H12Y 4451   1.514   3.077   3.486
   34SAPE  C313 4452   1.626   2.912   3.569
   34SAPE  H13X 4453   1.720   2.966   3.594
   34SAPE  H13Y 4454   1.652   2.808   3.541
   34SAPE  C314 4455   1.542   2.911   3.699
   34SAPE  H14X 4456   1.451   2.850   3.684
   34SAPE  H14Y 4457   1.510   3.015   3.722
   34SAPE  C315 4458   1.624   2.856   3.816
   34SAPE  H15X 4459   1.722   2.909   3.822
   34SAPE  H15Y 4460   1.648   2.750   3.793
   34SAPE  C316 4461   1.553   2.860   3.953
   34SAPE  H16X 4462   1.599   2.781   4.016
   34SAPE  H16Y 4463   1.446   2.833   3.940
   34SAPE  C317 4464   1.563   2.993   4.032
   34SAPE  H17X 4465   1.526   2.974   4.135
   34SAPE  H17Y 4466   1.492   3.066   3.986
   34SAPE  C318 4467   1.700   3.060   4.041
   34SAPE  H18X 4468   1.739   3.088   3.941
   34SAPE  H18Y 4469   1.773   2.992   4.089
   34SAPE  H18Z 4470   1.695   3.152   4.103
   35SAPE     N 4471   2.678   1.384   2.100
   35SAPE   HN1 4472   2.776   1.358   2.077
   35SAPE   HN2 4473   2.672   1.477   2.146
   35SAPE   HN3 4474   2.642   1.306   2.159
   35SAPE   C12 4475   2.606   1.383   1.968
   35SAPE  H12A 4476   2.645   1.466   1.906
   35SAPE  H12B 4477   2.499   1.398   1.986
   35SAPE   C11 4478   2.639   1.250   1.900
   35SAPE  H11A 4479   2.594   1.250   1.798
   35SAPE  H11B 4480   2.588   1.167   1.955
   35SAPE     P 4481   2.860   1.121   1.966
   35SAPE   O13 4482   2.775   1.003   1.991
   35SAPE   O14 4483   2.989   1.101   1.894
   35SAPE   O12 4484   2.781   1.234   1.891
   35SAPE   O11 4485   2.893   1.192   2.106
   35SAPE    C1 4486   3.031   1.176   2.151
   35SAPE    HA 4487   3.089   1.094   2.100
   35SAPE    HB 4488   3.085   1.272   2.131
   35SAPE    C2 4489   3.047   1.141   2.301
   35SAPE    HS 4490   3.017   1.034   2.315
   35SAPE   O21 4491   2.970   1.233   2.379
   35SAPE   C21 4492   2.862   1.183   2.431
   35SAPE   O22 4493   2.825   1.067   2.427
   35SAPE   C22 4494   2.786   1.298   2.493
   35SAPE   H2R 4495   2.851   1.343   2.571
   35SAPE   H2S 4496   2.769   1.374   2.414
   35SAPE    C3 4497   3.195   1.152   2.347
   35SAPE    HX 4498   3.237   1.241   2.295
   35SAPE    HY 4499   3.251   1.063   2.312
   35SAPE   O31 4500   3.203   1.161   2.492
   35SAPE   C31 4501   3.263   1.269   2.539
   35SAPE   O32 4502   3.325   1.350   2.474
   35SAPE   C32 4503   3.232   1.284   2.687
   35SAPE   H2X 4504   3.227   1.184   2.735
   35SAPE   H2Y 4505   3.132   1.332   2.694
   35SAPE   C23 4506   2.651   1.253   2.550
   35SAPE   H3R 4507   2.665   1.193   2.644
   35SAPE   H3S 4508   2.601   1.184   2.478
   35SAPE   C24 4509   2.558   1.372   2.574
   35SAPE   H4R 4510   2.455   1.331   2.587
   35SAPE   H4S 4511   2.554   1.429   2.478
   35SAPE   C25 4512   2.587   1.467   2.688
   35SAPE   H5R 4513   2.529   1.560   2.678
   35SAPE   C26 4514   2.665   1.458   2.798
   35SAPE   H6R 4515   2.660   1.543   2.867
   35SAPE   C27 4516   2.755   1.348   2.849
   35SAPE   H7R 4517   2.807   1.296   2.766
   35SAPE   H7S 4518   2.693   1.269   2.897
   35SAPE   C28 4519   2.861   1.395   2.946
   35SAPE   H8R 4520   2.963   1.398   2.904
   35SAPE   C29 4521   2.842   1.432   3.074
   35SAPE   H9R 4522   2.929   1.463   3.135
   35SAPE  C210 4523   2.712   1.435   3.151
   35SAPE  H10R 4524   2.625   1.425   3.082
   35SAPE  H10S 4525   2.702   1.534   3.200
   35SAPE  C211 4526   2.705   1.325   3.253
   35SAPE  H11R 4527   2.761   1.233   3.229
   35SAPE  C212 4528   2.632   1.326   3.366
   35SAPE  H12R 4529   2.640   1.240   3.434
   35SAPE  C213 4530   2.542   1.438   3.415
   35SAPE  H13R 4531   2.437   1.411   3.390
   35SAPE  H13S 4532   2.562   1.533   3.361
   35SAPE  C214 4533   2.548   1.466   3.564
   35SAPE  H14R 4534   2.451   1.463   3.615
   35SAPE  C215 4535   2.658   1.492   3.637
   35SAPE  H15R 4536   2.649   1.511   3.745
   35SAPE  C216 4537   2.799   1.496   3.582
   35SAPE  H16R 4538   2.815   1.588   3.522
   35SAPE  H16S 4539   2.819   1.410   3.516
   35SAPE  C217 4540   2.904   1.489   3.693
   35SAPE  H17R 4541   3.002   1.468   3.643
   35SAPE  H17S 4542   2.886   1.403   3.761
   35SAPE  C218 4543   2.916   1.620   3.771
   35SAPE  H18R 4544   2.830   1.634   3.839
   35SAPE  H18S 4545   2.912   1.701   3.696
   35SAPE  C219 4546   3.047   1.628   3.849
   35SAPE  H19R 4547   3.114   1.546   3.816
   35SAPE  H19S 4548   3.018   1.614   3.955
   35SAPE  C220 4549   3.128   1.757   3.840
   35SAPE  H20R 4550   3.147   1.784   3.735
   35SAPE  H20S 4551   3.227   1.747   3.891
   35SAPE  H20T 4552   3.073   1.837   3.892
   35SAPE   C33 4553   3.337   1.373   2.758
   35SAPE   H3X 4554   3.363   1.461   2.695
   35SAPE   H3Y 4555   3.429   1.313   2.776
   35SAPE   C34 4556   3.288   1.425   2.893
   35SAPE   H4X 4557   3.199   1.490   2.879
   35SAPE   H4Y 4558   3.369   1.488   2.937
   35SAPE   C35 4559   3.255   1.312   2.989
   35SAPE   H5X 4560   3.345   1.246   3.001
   35SAPE   H5Y 4561   3.173   1.250   2.947
   35SAPE   C36 4562   3.214   1.367   3.124
   35SAPE   H6X 4563   3.128   1.435   3.110
   35SAPE   H6Y 4564   3.299   1.427   3.164
   35SAPE   C37 4565   3.180   1.261   3.229
   35SAPE   H7X 4566   3.145   1.316   3.320
   35SAPE   H7Y 4567   3.273   1.206   3.256
   35SAPE   C38 4568   3.072   1.161   3.186
   35SAPE   H8X 4569   3.103   1.110   3.092
   35SAPE   H8Y 4570   2.978   1.216   3.164
   35SAPE   C39 4571   3.044   1.050   3.288
   35SAPE   H9X 4572   3.128   0.977   3.285
   35SAPE   H9Y 4573   2.951   0.995   3.259
   35SAPE  C310 4574   3.034   1.097   3.433
   35SAPE  H10X 4575   2.943   1.159   3.447
   35SAPE  H10Y 4576   3.122   1.159   3.460
   35SAPE  C311 4577   3.034   0.978   3.528
   35SAPE  H11X 4578   3.126   0.917   3.512
   35SAPE  H11Y 4579   2.946   0.914   3.509
   35SAPE  C312 4580   3.032   1.027   3.672
   35SAPE  H12X 4581   2.953   1.104   3.683
   35SAPE  H12Y 4582   3.130   1.075   3.697
   35SAPE  C313 4583   3.009   0.911   3.768
   35SAPE  H13X 4584   3.091   0.838   3.752
   35SAPE  H13Y 4585   2.913   0.859   3.743
   35SAPE  C314 4586   3.010   0.954   3.914
   35SAPE  H14X 4587   3.106   1.007   3.934
   35SAPE  H14Y 4588   3.007   0.864   3.978
   35SAPE  C315 4589   2.891   1.044   3.950
   35SAPE  H15X 4590   2.881   1.130   3.881
   35SAPE  H15Y 4591   2.910   1.087   4.050
   35SAPE  C316 4592   2.762   0.965   3.960
   35SAPE  H16X 4593   2.780   0.880   4.031
   35SAPE  H16Y 4594   2.735   0.921   3.861
   35SAPE  C317 4595   2.646   1.048   4.012
   35SAPE  H17X 4596   2.596   1.100   3.928
   35SAPE  H17Y 4597   2.684   1.127   4.080
   35SAPE  C318 4598   2.547   0.961   4.089
   35SAPE  H18X 4599   2.595   0.919   4.180
   35SAPE  H18Y 4600   2.516   0.877   4.024
   35SAPE  H18Z 4601   2.457   1.019   4.119
   36SAPE     N 4602   3.353   3.622   1.768
   36SAPE   HN1 4603   3.426   3.581   1.707
   36SAPE   HN2 4604   3.312   3.552   1.836
   36SAPE   HN3 4605   3.271   3.645   1.706
   36SAPE   C12 4606   3.381   3.752   1.836
   36SAPE  H12A 4607   3.386   3.832   1.758
   36SAPE  H12B 4608   3.479   3.746   1.887
   36SAPE   C11 4609   3.268   3.783   1.935
   36SAPE  H11A 4610   3.280   3.720   2.026
   36SAPE  H11B 4611   3.168   3.761   1.890
   36SAPE     P 4612   3.176   3.987   2.068
   36SAPE   O13 4613   3.185   3.912   2.196
   36SAPE   O14 4614   3.202   4.131   2.071
   36SAPE   O12 4615   3.277   3.921   1.965
   36SAPE   O11 4616   3.037   3.959   1.998
   36SAPE    C1 4617   2.927   3.896   2.064
   36SAPE    HA 4618   2.870   3.838   1.987
   36SAPE    HB 4619   2.960   3.823   2.142
   36SAPE    C2 4620   2.829   3.999   2.128
   36SAPE    HS 4621   2.807   4.075   2.049
   36SAPE   O21 4622   2.891   4.056   2.242
   36SAPE   C21 4623   2.888   4.186   2.259
   36SAPE   O22 4624   2.838   4.268   2.183
   36SAPE   C22 4625   2.941   4.211   2.398
   36SAPE   H2R 4626   2.871   4.160   2.467
   36SAPE   H2S 4627   3.041   4.162   2.403
   36SAPE    C3 4628   2.696   3.932   2.173
   36SAPE    HX 4629   2.657   3.867   2.092
   36SAPE    HY 4630   2.618   4.010   2.189
   36SAPE   O31 4631   2.717   3.848   2.288
   36SAPE   C31 4632   2.695   3.909   2.404
   36SAPE   O32 4633   2.638   4.015   2.421
   36SAPE   C32 4634   2.760   3.828   2.515
   36SAPE   H2X 4635   2.837   3.761   2.471
   36SAPE   H2Y 4636   2.682   3.765   2.562
   36SAPE   C23 4637   2.950   4.359   2.443
   36SAPE   H3R 4638   2.859   4.415   2.415
   36SAPE   H3S 4639   3.034   4.410   2.391
   36SAPE   C24 4640   2.966   4.365   2.596
   36SAPE   H4R 4641   2.877   4.318   2.644
   36SAPE   H4S 4642   2.969   4.471   2.627
   36SAPE   C25 4643   3.094   4.293   2.628
   36SAPE   H5R 4644   3.171   4.309   2.552
   36SAPE   C26 4645   3.121   4.208   2.727
   36SAPE   H6R 4646   3.218   4.155   2.726
   36SAPE   C27 4647   3.029   4.162   2.836
   36SAPE   H7R 4648   3.030   4.052   2.837
   36SAPE   H7S 4649   2.925   4.191   2.811
   36SAPE   C28 4650   3.073   4.207   2.973
   36SAPE   H8R 4651   3.180   4.220   2.989
   36SAPE   C29 4652   2.990   4.232   3.074
   36SAPE   H9R 4653   3.031   4.266   3.171
   36SAPE  C210 4654   2.840   4.220   3.065
   36SAPE  H10R 4655   2.807   4.235   2.961
   36SAPE  H10S 4656   2.793   4.303   3.122
   36SAPE  C211 4657   2.788   4.087   3.112
   36SAPE  H11R 4658   2.764   4.013   3.035
   36SAPE  C212 4659   2.770   4.057   3.242
   36SAPE  H12R 4660   2.730   3.959   3.271
   36SAPE  C213 4661   2.802   4.156   3.350
   36SAPE  H13R 4662   2.741   4.249   3.338
   36SAPE  H13S 4663   2.907   4.190   3.341
   36SAPE  C214 4664   2.776   4.102   3.488
   36SAPE  H14R 4665   2.670   4.092   3.514
   36SAPE  C215 4666   2.870   4.062   3.575
   36SAPE  H15R 4667   2.839   4.027   3.675
   36SAPE  C216 4668   3.018   4.065   3.549
   36SAPE  H16R 4669   3.040   4.037   3.443
   36SAPE  H16S 4670   3.068   3.990   3.614
   36SAPE  C217 4671   3.082   4.200   3.575
   36SAPE  H17R 4672   3.058   4.232   3.678
   36SAPE  H17S 4673   3.040   4.277   3.505
   36SAPE  C218 4674   3.234   4.195   3.559
   36SAPE  H18R 4675   3.270   4.300   3.555
   36SAPE  H18S 4676   3.261   4.145   3.464
   36SAPE  C219 4677   3.304   4.127   3.678
   36SAPE  H19R 4678   3.353   4.032   3.645
   36SAPE  H19S 4679   3.228   4.100   3.754
   36SAPE  C220 4680   3.407   4.218   3.744
   36SAPE  H20R 4681   3.361   4.316   3.769
   36SAPE  H20S 4682   3.491   4.236   3.674
   36SAPE  H20T 4683   3.446   4.173   3.838
   36SAPE   C33 4684   2.825   3.922   2.618
   36SAPE   H3X 4685   2.747   3.990   2.660
   36SAPE   H3Y 4686   2.902   3.985   2.568
   36SAPE   C34 4687   2.894   3.846   2.731
   36SAPE   H4X 4688   2.844   3.747   2.744
   36SAPE   H4Y 4689   2.880   3.902   2.826
   36SAPE   C35 4690   3.044   3.823   2.706
   36SAPE   H5X 4691   3.097   3.920   2.689
   36SAPE   H5Y 4692   3.054   3.766   2.610
   36SAPE   C36 4693   3.112   3.742   2.816
   36SAPE   H6X 4694   3.212   3.709   2.781
   36SAPE   H6Y 4695   3.049   3.652   2.830
   36SAPE   C37 4696   3.131   3.809   2.954
   36SAPE   H7X 4697   3.060   3.893   2.969
   36SAPE   H7Y 4698   3.234   3.848   2.963
   36SAPE   C38 4699   3.105   3.705   3.065
   36SAPE   H8X 4700   3.155   3.611   3.033
   36SAPE   H8Y 4701   2.996   3.685   3.072
   36SAPE   C39 4702   3.161   3.740   3.203
   36SAPE   H9X 4703   3.239   3.819   3.198
   36SAPE   H9Y 4704   3.209   3.647   3.241
   36SAPE  C310 4705   3.056   3.777   3.308
   36SAPE  H10X 4706   2.969   3.709   3.295
   36SAPE  H10Y 4707   3.018   3.880   3.292
   36SAPE  C311 4708   3.113   3.757   3.449
   36SAPE  H11X 4709   3.166   3.849   3.483
   36SAPE  H11Y 4710   3.189   3.676   3.446
   36SAPE  C312 4711   3.005   3.717   3.549
   36SAPE  H12X 4712   2.938   3.642   3.502
   36SAPE  H12Y 4713   2.939   3.804   3.567
   36SAPE  C313 4714   3.053   3.662   3.685
   36SAPE  H13X 4715   3.007   3.562   3.703
   36SAPE  H13Y 4716   3.008   3.731   3.758
   36SAPE  C314 4717   3.204   3.656   3.712
   36SAPE  H14X 4718   3.246   3.759   3.703
   36SAPE  H14Y 4719   3.255   3.593   3.634
   36SAPE  C315 4720   3.240   3.596   3.850
   36SAPE  H15X 4721   3.257   3.487   3.834
   36SAPE  H15Y 4722   3.155   3.599   3.921
   36SAPE  C316 4723   3.365   3.658   3.916
   36SAPE  H16X 4724   3.419   3.720   3.842
   36SAPE  H16Y 4725   3.430   3.574   3.948
   36SAPE  C317 4726   3.343   3.743   4.041
   36SAPE  H17X 4727   3.270   3.693   4.108
   36SAPE  H17Y 4728   3.298   3.840   4.011
   36SAPE  C318 4729   3.472   3.772   4.119
   36SAPE  H18X 4730   3.448   3.824   4.214
   36SAPE  H18Y 4731   3.539   3.838   4.059
   36SAPE  H18Z 4732   3.527   3.678   4.141
   37SAPE     N 4733   4.461   2.672   1.915
   37SAPE   HN1 4734   4.360   2.660   1.940
   37SAPE   HN2 4735   4.475   2.646   1.815
   37SAPE   HN3 4736   4.523   2.609   1.972
   37SAPE   C12 4737   4.512   2.810   1.947
   37SAPE  H12A 4738   4.622   2.806   1.956
   37SAPE  H12B 4739   4.471   2.839   2.046
   37SAPE   C11 4740   4.473   2.912   1.837
   37SAPE  H11A 4741   4.530   2.890   1.744
   37SAPE  H11B 4742   4.509   3.012   1.870
   37SAPE     P 4743   4.224   2.932   1.921
   37SAPE   O13 4744   4.108   3.010   1.869
   37SAPE   O14 4745   4.193   2.797   1.970
   37SAPE   O12 4746   4.333   2.914   1.806
   37SAPE   O11 4747   4.302   3.017   2.030
   37SAPE    C1 4748   4.318   3.156   2.000
   37SAPE    HA 4749   4.383   3.171   1.911
   37SAPE    HB 4750   4.220   3.205   1.980
   37SAPE    C2 4751   4.385   3.234   2.116
   37SAPE    HS 4752   4.446   3.316   2.071
   37SAPE   O21 4753   4.466   3.151   2.201
   37SAPE   C21 4754   4.589   3.121   2.159
   37SAPE   O22 4755   4.625   3.138   2.044
   37SAPE   C22 4756   4.671   3.061   2.284
   37SAPE   H2R 4757   4.593   3.015   2.344
   37SAPE   H2S 4758   4.724   2.976   2.235
   37SAPE    C3 4759   4.275   3.302   2.202
   37SAPE    HX 4760   4.215   3.370   2.138
   37SAPE    HY 4761   4.327   3.365   2.278
   37SAPE   O31 4762   4.188   3.202   2.259
   37SAPE   C31 4763   4.158   3.217   2.388
   37SAPE   O32 4764   4.179   3.318   2.452
   37SAPE   C32 4765   4.116   3.078   2.440
   37SAPE   H2X 4766   4.203   3.010   2.429
   37SAPE   H2Y 4767   4.036   3.043   2.372
   37SAPE   C23 4768   4.788   3.136   2.372
   37SAPE   H3R 4769   4.823   3.224   2.321
   37SAPE   H3S 4770   4.870   3.061   2.363
   37SAPE   C24 4771   4.812   3.176   2.529
   37SAPE   H4R 4772   4.924   3.182   2.521
   37SAPE   H4S 4773   4.800   3.088   2.585
   37SAPE   C25 4774   4.791   3.297   2.623
   37SAPE   H5R 4775   4.826   3.387   2.572
   37SAPE   C26 4776   4.740   3.319   2.750
   37SAPE   H6R 4777   4.751   3.422   2.785
   37SAPE   C27 4778   4.680   3.236   2.866
   37SAPE   H7R 4779   4.715   3.133   2.867
   37SAPE   H7S 4780   4.571   3.224   2.847
   37SAPE   C28 4781   4.694   3.279   3.010
   37SAPE   H8R 4782   4.795   3.261   3.049
   37SAPE   C29 4783   4.600   3.322   3.098
   37SAPE   H9R 4784   4.636   3.346   3.199
   37SAPE  C210 4785   4.450   3.344   3.088
   37SAPE  H10R 4786   4.427   3.449   3.063
   37SAPE  H10S 4787   4.411   3.338   3.192
   37SAPE  C211 4788   4.361   3.261   3.000
   37SAPE  H11R 4789   4.354   3.291   2.894
   37SAPE  C212 4790   4.291   3.155   3.043
   37SAPE  H12R 4791   4.220   3.108   2.973
   37SAPE  C213 4792   4.292   3.105   3.185
   37SAPE  H13R 4793   4.263   3.188   3.253
   37SAPE  H13S 4794   4.398   3.080   3.210
   37SAPE  C214 4795   4.203   2.987   3.215
   37SAPE  H14R 4796   4.126   2.962   3.140
   37SAPE  C215 4797   4.214   2.911   3.326
   37SAPE  H15R 4798   4.145   2.826   3.338
   37SAPE  C216 4799   4.315   2.930   3.436
   37SAPE  H16R 4800   4.403   2.988   3.402
   37SAPE  H16S 4801   4.354   2.830   3.465
   37SAPE  C217 4802   4.265   2.998   3.565
   37SAPE  H17R 4803   4.307   2.941   3.651
   37SAPE  H17S 4804   4.154   2.989   3.574
   37SAPE  C218 4805   4.315   3.143   3.581
   37SAPE  H18R 4806   4.253   3.210   3.517
   37SAPE  H18S 4807   4.420   3.152   3.545
   37SAPE  C219 4808   4.309   3.191   3.727
   37SAPE  H19R 4809   4.378   3.132   3.792
   37SAPE  H19S 4810   4.208   3.169   3.766
   37SAPE  C220 4811   4.335   3.340   3.747
   37SAPE  H20R 4812   4.241   3.398   3.747
   37SAPE  H20S 4813   4.401   3.381   3.667
   37SAPE  H20T 4814   4.381   3.358   3.846
   37SAPE   C33 4815   4.057   3.072   2.584
   37SAPE   H3X 4816   3.979   2.993   2.586
   37SAPE   H3Y 4817   4.004   3.168   2.603
   37SAPE   C34 4818   4.154   3.047   2.700
   37SAPE   H4X 4819   4.096   3.069   2.793
   37SAPE   H4Y 4820   4.236   3.122   2.696
   37SAPE   C35 4821   4.210   2.904   2.717
   37SAPE   H5X 4822   4.276   2.880   2.632
   37SAPE   H5Y 4823   4.125   2.831   2.717
   37SAPE   C36 4824   4.286   2.894   2.851
   37SAPE   H6X 4825   4.212   2.907   2.933
   37SAPE   H6Y 4826   4.357   2.980   2.853
   37SAPE   C37 4827   4.369   2.770   2.883
   37SAPE   H7X 4828   4.440   2.749   2.800
   37SAPE   H7Y 4829   4.303   2.681   2.892
   37SAPE   C38 4830   4.449   2.785   3.016
   37SAPE   H8X 4831   4.496   2.687   3.034
   37SAPE   H8Y 4832   4.383   2.810   3.101
   37SAPE   C39 4833   4.567   2.883   3.007
   37SAPE   H9X 4834   4.534   2.987   2.986
   37SAPE   H9Y 4835   4.619   2.839   2.921
   37SAPE  C310 4836   4.684   2.879   3.106
   37SAPE  H10X 4837   4.765   2.944   3.066
   37SAPE  H10Y 4838   4.723   2.775   3.108
   37SAPE  C311 4839   4.655   2.923   3.249
   37SAPE  H11X 4840   4.567   2.866   3.284
   37SAPE  H11Y 4841   4.629   3.031   3.255
   37SAPE  C312 4842   4.777   2.891   3.336
   37SAPE  H12X 4843   4.848   2.977   3.341
   37SAPE  H12Y 4844   4.832   2.805   3.292
   37SAPE  C313 4845   4.733   2.847   3.475
   37SAPE  H13X 4846   4.816   2.795   3.527
   37SAPE  H13Y 4847   4.650   2.776   3.460
   37SAPE  C314 4848   4.681   2.961   3.562
   37SAPE  H14X 4849   4.594   3.011   3.515
   37SAPE  H14Y 4850   4.762   3.036   3.571
   37SAPE  C315 4851   4.642   2.906   3.700
   37SAPE  H15X 4852   4.716   2.827   3.727
   37SAPE  H15Y 4853   4.542   2.858   3.694
   37SAPE  C316 4854   4.643   3.012   3.809
   37SAPE  H16X 4855   4.611   2.967   3.906
   37SAPE  H16Y 4856   4.568   3.088   3.781
   37SAPE  C317 4857   4.778   3.083   3.828
   37SAPE  H17X 4858   4.857   3.035   3.766
   37SAPE  H17Y 4859   4.810   3.069   3.933
   37SAPE  C318 4860   4.770   3.233   3.796
   37SAPE  H18X 4861   4.818   3.256   3.699
   37SAPE  H18Y 4862   4.820   3.292   3.876
   37SAPE  H18Z 4863   4.665   3.267   3.792
   38SAPE     N 4864   0.568   2.441   1.771
   38SAPE   HN1 4865   0.548   2.450   1.669
   38SAPE   HN2 4866   0.667   2.414   1.789
   38SAPE   HN3 4867   0.507   2.371   1.818
   38SAPE   C12 4868   0.529   2.563   1.848
   38SAPE  H12A 4869   0.435   2.602   1.804
   38SAPE  H12B 4870   0.609   2.639   1.841
   38SAPE   C11 4871   0.505   2.517   1.993
   38SAPE  H11A 4872   0.449   2.593   2.052
   38SAPE  H11B 4873   0.603   2.504   2.042
   38SAPE     P 4874   0.280   2.383   1.997
   38SAPE   O13 4875   0.229   2.507   1.933
   38SAPE   O14 4876   0.240   2.256   1.932
   38SAPE   O12 4877   0.437   2.391   1.990
   38SAPE   O11 4878   0.264   2.379   2.155
   38SAPE    C1 4879   0.295   2.262   2.232
   38SAPE    HA 4880   0.209   2.191   2.225
   38SAPE    HB 4881   0.384   2.206   2.195
   38SAPE    C2 4882   0.317   2.296   2.382
   38SAPE    HS 4883   0.427   2.300   2.400
   38SAPE   O21 4884   0.249   2.199   2.468
   38SAPE   C21 4885   0.328   2.109   2.529
   38SAPE   O22 4886   0.449   2.102   2.516
   38SAPE   C22 4887   0.250   2.020   2.627
   38SAPE   H2R 4888   0.142   2.034   2.614
   38SAPE   H2S 4889   0.272   1.915   2.598
   38SAPE    C3 4890   0.266   2.442   2.411
   38SAPE    HX 4891   0.171   2.459   2.356
   38SAPE    HY 4892   0.341   2.512   2.367
   38SAPE   O31 4893   0.241   2.468   2.550
   38SAPE   C31 4894   0.290   2.578   2.606
   38SAPE   O32 4895   0.360   2.662   2.555
   38SAPE   C32 4896   0.240   2.576   2.752
   38SAPE   H2X 4897   0.253   2.471   2.787
   38SAPE   H2Y 4898   0.131   2.597   2.746
   38SAPE   C23 4899   0.287   2.043   2.775
   38SAPE   H3R 4900   0.283   2.152   2.799
   38SAPE   H3S 4901   0.393   2.011   2.791
   38SAPE   C24 4902   0.194   1.965   2.871
   38SAPE   H4R 4903   0.245   1.951   2.968
   38SAPE   H4S 4904   0.178   1.864   2.828
   38SAPE   C25 4905   0.064   2.040   2.886
   38SAPE   H5R 4906   0.041   2.097   2.795
   38SAPE   C26 4907  -0.021   2.054   2.990
   38SAPE   H6R 4908  -0.110   2.117   2.975
   38SAPE   C27 4909  -0.013   1.995   3.129
   38SAPE   H7R 4910   0.060   1.911   3.130
   38SAPE   H7S 4911  -0.112   1.953   3.153
   38SAPE   C28 4912   0.013   2.088   3.243
   38SAPE   H8R 4913  -0.077   2.125   3.294
   38SAPE   C29 4914   0.132   2.130   3.287
   38SAPE   H9R 4915   0.135   2.202   3.370
   38SAPE  C210 4916   0.266   2.092   3.231
   38SAPE  H10R 4917   0.259   2.013   3.154
   38SAPE  H10S 4918   0.333   2.051   3.310
   38SAPE  C211 4919   0.318   2.220   3.172
   38SAPE  H11R 4920   0.278   2.245   3.072
   38SAPE  C212 4921   0.400   2.307   3.233
   38SAPE  H12R 4922   0.422   2.400   3.179
   38SAPE  C213 4923   0.457   2.294   3.372
   38SAPE  H13R 4924   0.566   2.314   3.372
   38SAPE  H13S 4925   0.451   2.189   3.410
   38SAPE  C214 4926   0.390   2.391   3.465
   38SAPE  H14R 4927   0.409   2.497   3.444
   38SAPE  C215 4928   0.312   2.358   3.569
   38SAPE  H15R 4929   0.271   2.438   3.633
   38SAPE  C216 4930   0.277   2.218   3.612
   38SAPE  H16R 4931   0.267   2.148   3.526
   38SAPE  H16S 4932   0.178   2.219   3.663
   38SAPE  C217 4933   0.382   2.156   3.705
   38SAPE  H17R 4934   0.459   2.102   3.645
   38SAPE  H17S 4935   0.326   2.082   3.766
   38SAPE  C218 4936   0.454   2.250   3.802
   38SAPE  H18R 4937   0.512   2.328   3.748
   38SAPE  H18S 4938   0.530   2.190   3.858
   38SAPE  C219 4939   0.359   2.313   3.902
   38SAPE  H19R 4940   0.290   2.236   3.943
   38SAPE  H19S 4941   0.297   2.390   3.851
   38SAPE  C220 4942   0.434   2.378   4.017
   38SAPE  H20R 4943   0.537   2.407   3.987
   38SAPE  H20S 4944   0.442   2.310   4.104
   38SAPE  H20T 4945   0.380   2.470   4.048
   38SAPE   C33 4946   0.305   2.671   2.857
   38SAPE   H3X 4947   0.282   2.776   2.830
   38SAPE   H3Y 4948   0.415   2.658   2.857
   38SAPE   C34 4949   0.249   2.637   2.996
   38SAPE   H4X 4950   0.271   2.529   3.017
   38SAPE   H4Y 4951   0.138   2.647   2.988
   38SAPE   C35 4952   0.288   2.717   3.122
   38SAPE   H5X 4953   0.268   2.825   3.108
   38SAPE   H5Y 4954   0.396   2.705   3.146
   38SAPE   C36 4955   0.203   2.665   3.240
   38SAPE   H6X 4956   0.233   2.559   3.259
   38SAPE   H6Y 4957   0.097   2.666   3.207
   38SAPE   C37 4958   0.209   2.742   3.372
   38SAPE   H7X 4959   0.152   2.837   3.361
   38SAPE   H7Y 4960   0.314   2.768   3.394
   38SAPE   C38 4961   0.152   2.662   3.491
   38SAPE   H8X 4962   0.231   2.666   3.569
   38SAPE   H8Y 4963   0.141   2.555   3.465
   38SAPE   C39 4964   0.018   2.713   3.549
   38SAPE   H9X 4965  -0.066   2.681   3.484
   38SAPE   H9Y 4966   0.016   2.824   3.547
   38SAPE  C310 4967  -0.008   2.671   3.695
   38SAPE  H10X 4968  -0.028   2.561   3.702
   38SAPE  H10Y 4969  -0.100   2.723   3.731
   38SAPE  C311 4970   0.110   2.705   3.787
   38SAPE  H11X 4971   0.174   2.778   3.734
   38SAPE  H11Y 4972   0.172   2.615   3.803
   38SAPE  C312 4973   0.076   2.775   3.920
   38SAPE  H12X 4974   0.006   2.859   3.899
   38SAPE  H12Y 4975   0.170   2.819   3.960
   38SAPE  C313 4976   0.017   2.685   4.028
   38SAPE  H13X 4977  -0.076   2.640   3.989
   38SAPE  H13Y 4978  -0.010   2.747   4.117
   38SAPE  C314 4979   0.109   2.571   4.074
   38SAPE  H14X 4980   0.187   2.609   4.144
   38SAPE  H14Y 4981   0.162   2.527   3.987
   38SAPE  C315 4982   0.027   2.460   4.138
   38SAPE  H15X 4983   0.086   2.366   4.142
   38SAPE  H15Y 4984  -0.059   2.437   4.070
   38SAPE  C316 4985  -0.030   2.499   4.276
   38SAPE  H16X 4986  -0.112   2.430   4.303
   38SAPE  H16Y 4987  -0.072   2.602   4.272
   38SAPE  C317 4988   0.071   2.489   4.390
   38SAPE  H17X 4989   0.018   2.506   4.486
   38SAPE  H17Y 4990   0.144   2.570   4.377
   38SAPE  C318 4991   0.140   2.353   4.394
   38SAPE  H18X 4992   0.199   2.339   4.486
   38SAPE  H18Y 4993   0.210   2.340   4.308
   38SAPE  H18Z 4994   0.064   2.273   4.388
   39SAPE     N 4995   4.100   4.401   2.070
   39SAPE   HN1 4996   4.176   4.334   2.097
   39SAPE   HN2 4997   4.011   4.347   2.082
   39SAPE   HN3 4998   4.116   4.424   1.970
   39SAPE   C12 4999   4.108   4.528   2.152
   39SAPE  H12A 5000   4.130   4.500   2.257
   39SAPE  H12B 5001   4.008   4.577   2.148
   39SAPE   C11 5002   4.217   4.626   2.102
   39SAPE  H11A 5003   4.316   4.577   2.118
   39SAPE  H11B 5004   4.217   4.717   2.166
   39SAPE     P 5005   4.314   4.689   1.861
   39SAPE   O13 5006   4.267   4.627   1.735
   39SAPE   O14 5007   4.339   4.833   1.858
   39SAPE   O12 5008   4.197   4.665   1.966
   39SAPE   O11 5009   4.434   4.605   1.919
   39SAPE    C1 5010   4.569   4.647   1.912
   39SAPE    HA 5011   4.628   4.570   1.857
   39SAPE    HB 5012   4.581   4.743   1.857
   39SAPE    C2 5013   4.629   4.668   2.053
   39SAPE    HS 5014   4.736   4.697   2.041
   39SAPE   O21 5015   4.625   4.554   2.139
   39SAPE   C21 5016   4.608   4.432   2.099
   39SAPE   O22 5017   4.647   4.379   1.997
   39SAPE   C22 5018   4.533   4.364   2.210
   39SAPE   H2R 5019   4.597   4.285   2.251
   39SAPE   H2S 5020   4.512   4.437   2.292
   39SAPE    C3 5021   4.557   4.784   2.128
   39SAPE    HX 5022   4.456   4.749   2.161
   39SAPE    HY 5023   4.538   4.866   2.057
   39SAPE   O31 5024   4.641   4.831   2.236
   39SAPE   C31 5025   4.610   4.782   2.356
   39SAPE   O32 5026   4.505   4.729   2.386
   39SAPE   C32 5027   4.741   4.769   2.436
   39SAPE   H2X 5028   4.826   4.801   2.374
   39SAPE   H2Y 5029   4.750   4.659   2.445
   39SAPE   C23 5030   4.400   4.302   2.165
   39SAPE   H3R 5031   4.420   4.208   2.111
   39SAPE   H3S 5032   4.352   4.373   2.095
   39SAPE   C24 5033   4.309   4.278   2.286
   39SAPE   H4R 5034   4.207   4.253   2.251
   39SAPE   H4S 5035   4.304   4.372   2.346
   39SAPE   C25 5036   4.357   4.161   2.367
   39SAPE   H5R 5037   4.343   4.063   2.317
   39SAPE   C26 5038   4.406   4.165   2.492
   39SAPE   H6R 5039   4.434   4.070   2.539
   39SAPE   C27 5040   4.426   4.285   2.581
   39SAPE   H7R 5041   4.476   4.369   2.526
   39SAPE   H7S 5042   4.495   4.256   2.663
   39SAPE   C28 5043   4.301   4.336   2.647
   39SAPE   H8R 5044   4.211   4.273   2.640
   39SAPE   C29 5045   4.294   4.446   2.724
   39SAPE   H9R 5046   4.197   4.473   2.769
   39SAPE  C210 5047   4.408   4.537   2.758
   39SAPE  H10R 5048   4.409   4.621   2.685
   39SAPE  H10S 5049   4.507   4.486   2.748
   39SAPE  C211 5050   4.391   4.591   2.898
   39SAPE  H11R 5051   4.358   4.695   2.902
   39SAPE  C212 5052   4.418   4.527   3.014
   39SAPE  H12R 5053   4.404   4.581   3.108
   39SAPE  C213 5054   4.471   4.386   3.028
   39SAPE  H13R 5055   4.499   4.345   2.929
   39SAPE  H13S 5056   4.393   4.317   3.064
   39SAPE  C214 5057   4.590   4.373   3.121
   39SAPE  H14R 5058   4.685   4.373   3.066
   39SAPE  C215 5059   4.595   4.372   3.255
   39SAPE  H15R 5060   4.693   4.355   3.302
   39SAPE  C216 5061   4.484   4.383   3.355
   39SAPE  H16R 5062   4.385   4.369   3.306
   39SAPE  H16S 5063   4.485   4.486   3.397
   39SAPE  C217 5064   4.496   4.282   3.470
   39SAPE  H17R 5065   4.601   4.274   3.506
   39SAPE  H17S 5066   4.468   4.181   3.432
   39SAPE  C218 5067   4.407   4.315   3.592
   39SAPE  H18R 5068   4.428   4.240   3.671
   39SAPE  H18S 5069   4.302   4.303   3.561
   39SAPE  C219 5070   4.424   4.456   3.653
   39SAPE  H19R 5071   4.352   4.526   3.604
   39SAPE  H19S 5072   4.525   4.495   3.629
   39SAPE  C220 5073   4.407   4.463   3.806
   39SAPE  H20R 5074   4.444   4.561   3.844
   39SAPE  H20S 5075   4.465   4.382   3.855
   39SAPE  H20T 5076   4.301   4.453   3.836
   39SAPE   C33 5077   4.749   4.835   2.578
   39SAPE   H3X 5078   4.778   4.941   2.571
   39SAPE   H3Y 5079   4.833   4.789   2.633
   39SAPE   C34 5080   4.623   4.822   2.665
   39SAPE   H4X 5081   4.588   4.717   2.656
   39SAPE   H4Y 5082   4.543   4.886   2.621
   39SAPE   C35 5083   4.639   4.851   2.816
   39SAPE   H5X 5084   4.535   4.851   2.858
   39SAPE   H5Y 5085   4.682   4.951   2.836
   39SAPE   C36 5086   4.718   4.743   2.894
   39SAPE   H6X 5087   4.827   4.759   2.886
   39SAPE   H6Y 5088   4.694   4.645   2.846
   39SAPE   C37 5089   4.679   4.723   3.041
   39SAPE   H7X 5090   4.704   4.618   3.070
   39SAPE   H7Y 5091   4.569   4.736   3.051
   39SAPE   C38 5092   4.747   4.816   3.140
   39SAPE   H8X 5093   4.715   4.918   3.115
   39SAPE   H8Y 5094   4.857   4.810   3.126
   39SAPE   C39 5095   4.715   4.782   3.287
   39SAPE   H9X 5096   4.763   4.856   3.353
   39SAPE   H9Y 5097   4.762   4.684   3.310
   39SAPE  C310 5098   4.565   4.769   3.325
   39SAPE  H10X 5099   4.558   4.750   3.435
   39SAPE  H10Y 5100   4.523   4.680   3.274
   39SAPE  C311 5101   4.479   4.892   3.291
   39SAPE  H11X 5102   4.486   4.909   3.181
   39SAPE  H11Y 5103   4.520   4.983   3.340
   39SAPE  C312 5104   4.330   4.874   3.328
   39SAPE  H12X 5105   4.297   4.774   3.292
   39SAPE  H12Y 5106   4.272   4.950   3.272
   39SAPE  C313 5107   4.295   4.889   3.477
   39SAPE  H13X 5108   4.349   4.813   3.538
   39SAPE  H13Y 5109   4.186   4.868   3.488
   39SAPE  C314 5110   4.321   5.030   3.532
   39SAPE  H14X 5111   4.242   5.059   3.605
   39SAPE  H14Y 5112   4.316   5.101   3.447
   39SAPE  C315 5113   4.458   5.047   3.601
   39SAPE  H15X 5114   4.492   5.151   3.577
   39SAPE  H15Y 5115   4.532   4.977   3.558
   39SAPE  C316 5116   4.456   5.034   3.754
   39SAPE  H16X 5117   4.388   5.111   3.795
   39SAPE  H16Y 5118   4.558   5.055   3.793
   39SAPE  C317 5119   4.413   4.895   3.804
   39SAPE  H17X 5120   4.478   4.819   3.755
   39SAPE  H17Y 5121   4.308   4.876   3.772
   39SAPE  C318 5122   4.425   4.880   3.955
   39SAPE  H18X 5123   4.528   4.903   3.990
   39SAPE  H18Y 5124   4.400   4.776   3.985
   39SAPE  H18Z 5125   4.355   4.949   4.007
   40SAPE     N 5126   0.644   4.869   1.831
   40SAPE   HN1 5127   0.624   4.772   1.794
   40SAPE   HN2 5128   0.636   4.939   1.755
   40SAPE   HN3 5129   0.741   4.869   1.867
   40SAPE   C12 5130   0.551   4.897   1.946
   40SAPE  H12A 5131   0.466   4.956   1.907
   40SAPE  H12B 5132   0.606   4.958   2.021
   40SAPE   C11 5133   0.503   4.768   2.013
   40SAPE  H11A 5134   0.439   4.709   1.943
   40SAPE  H11B 5135   0.439   4.795   2.100
   40SAPE     P 5136   0.667   4.570   1.974
   40SAPE   O13 5137   0.609   4.447   2.028
   40SAPE   O14 5138   0.642   4.600   1.831
   40SAPE   O12 5139   0.617   4.695   2.060
   40SAPE   O11 5140   0.824   4.567   1.996
   40SAPE    C1 5141   0.887   4.437   1.993
   40SAPE    HA 5142   0.826   4.357   2.041
   40SAPE    HB 5143   0.903   4.408   1.887
   40SAPE    C2 5144   1.024   4.433   2.067
   40SAPE    HS 5145   1.092   4.364   2.012
   40SAPE   O21 5146   1.002   4.380   2.198
   40SAPE   C21 5147   1.102   4.377   2.285
   40SAPE   O22 5148   1.217   4.412   2.266
   40SAPE   C22 5149   1.044   4.333   2.419
   40SAPE   H2R 5150   0.962   4.262   2.396
   40SAPE   H2S 5151   1.124   4.278   2.472
   40SAPE    C3 5152   1.088   4.575   2.071
   40SAPE    HX 5153   1.070   4.619   1.970
   40SAPE    HY 5154   1.197   4.562   2.086
   40SAPE   O31 5155   1.034   4.655   2.179
   40SAPE   C31 5156   1.023   4.783   2.153
   40SAPE   O32 5157   1.067   4.838   2.053
   40SAPE   C32 5158   0.964   4.857   2.272
   40SAPE   H2X 5159   0.992   4.964   2.263
   40SAPE   H2Y 5160   1.012   4.816   2.364
   40SAPE   C23 5161   0.987   4.453   2.499
   40SAPE   H3R 5162   0.906   4.416   2.565
   40SAPE   H3S 5163   0.939   4.526   2.430
   40SAPE   C24 5164   1.094   4.523   2.585
   40SAPE   H4R 5165   1.052   4.616   2.629
   40SAPE   H4S 5166   1.178   4.553   2.517
   40SAPE   C25 5167   1.141   4.430   2.693
   40SAPE   H5R 5168   1.068   4.355   2.727
   40SAPE   C26 5169   1.260   4.432   2.754
   40SAPE   H6R 5170   1.282   4.357   2.831
   40SAPE   C27 5171   1.372   4.530   2.727
   40SAPE   H7R 5172   1.382   4.547   2.617
   40SAPE   H7S 5173   1.469   4.484   2.758
   40SAPE   C28 5174   1.359   4.664   2.795
   40SAPE   H8R 5175   1.379   4.749   2.728
   40SAPE   C29 5176   1.330   4.690   2.924
   40SAPE   H9R 5177   1.327   4.795   2.958
   40SAPE  C210 5178   1.301   4.590   3.034
   40SAPE  H10R 5179   1.380   4.597   3.112
   40SAPE  H10S 5180   1.306   4.485   2.999
   40SAPE  C211 5181   1.164   4.616   3.088
   40SAPE  H11R 5182   1.081   4.599   3.018
   40SAPE  C212 5183   1.135   4.658   3.212
   40SAPE  H12R 5184   1.030   4.655   3.241
   40SAPE  C213 5185   1.231   4.689   3.325
   40SAPE  H13R 5186   1.331   4.647   3.305
   40SAPE  H13S 5187   1.194   4.632   3.412
   40SAPE  C214 5188   1.253   4.829   3.371
   40SAPE  H14R 5189   1.293   4.897   3.295
   40SAPE  C215 5190   1.227   4.873   3.495
   40SAPE  H15R 5191   1.253   4.976   3.522
   40SAPE  C216 5192   1.173   4.790   3.609
   40SAPE  H16R 5193   1.212   4.686   3.607
   40SAPE  H16S 5194   1.063   4.783   3.600
   40SAPE  C217 5195   1.204   4.849   3.747
   40SAPE  H17R 5196   1.207   4.960   3.743
   40SAPE  H17S 5197   1.305   4.814   3.778
   40SAPE  C218 5198   1.100   4.809   3.852
   40SAPE  H18R 5199   1.084   4.699   3.851
   40SAPE  H18S 5200   1.003   4.857   3.826
   40SAPE  C219 5201   1.142   4.852   3.994
   40SAPE  H19R 5202   1.052   4.846   4.060
   40SAPE  H19S 5203   1.175   4.958   3.993
   40SAPE  C220 5204   1.253   4.765   4.052
   40SAPE  H20R 5205   1.254   4.770   4.163
   40SAPE  H20S 5206   1.352   4.800   4.015
   40SAPE  H20T 5207   1.241   4.659   4.022
   40SAPE   C33 5208   0.811   4.842   2.283
   40SAPE   H3X 5209   0.783   4.734   2.290
   40SAPE   H3Y 5210   0.762   4.883   2.193
   40SAPE   C34 5211   0.760   4.916   2.407
   40SAPE   H4X 5212   0.797   5.021   2.404
   40SAPE   H4Y 5213   0.804   4.867   2.497
   40SAPE   C35 5214   0.607   4.919   2.419
   40SAPE   H5X 5215   0.568   4.815   2.417
   40SAPE   H5Y 5216   0.565   4.973   2.330
   40SAPE   C36 5217   0.554   4.992   2.545
   40SAPE   H6X 5218   0.443   4.986   2.544
   40SAPE   H6Y 5219   0.580   5.100   2.537
   40SAPE   C37 5220   0.607   4.937   2.678
   40SAPE   H7X 5221   0.563   4.997   2.761
   40SAPE   H7Y 5222   0.717   4.953   2.683
   40SAPE   C38 5223   0.577   4.788   2.702
   40SAPE   H8X 5224   0.637   4.729   2.629
   40SAPE   H8Y 5225   0.470   4.767   2.682
   40SAPE   C39 5226   0.613   4.743   2.844
   40SAPE   H9X 5227   0.712   4.784   2.872
   40SAPE   H9Y 5228   0.622   4.632   2.844
   40SAPE  C310 5229   0.507   4.784   2.948
   40SAPE  H10X 5230   0.411   4.733   2.925
   40SAPE  H10Y 5231   0.489   4.893   2.942
   40SAPE  C311 5232   0.549   4.749   3.092
   40SAPE  H11X 5233   0.481   4.802   3.163
   40SAPE  H11Y 5234   0.652   4.786   3.110
   40SAPE  C312 5235   0.539   4.599   3.119
   40SAPE  H12X 5236   0.589   4.543   3.038
   40SAPE  H12Y 5237   0.431   4.570   3.118
   40SAPE  C313 5238   0.601   4.558   3.253
   40SAPE  H13X 5239   0.606   4.645   3.321
   40SAPE  H13Y 5240   0.705   4.525   3.233
   40SAPE  C314 5241   0.523   4.445   3.324
   40SAPE  H14X 5242   0.501   4.364   3.252
   40SAPE  H14Y 5243   0.428   4.486   3.361
   40SAPE  C315 5244   0.605   4.390   3.440
   40SAPE  H15X 5245   0.615   4.471   3.515
   40SAPE  H15Y 5246   0.705   4.365   3.400
   40SAPE  C316 5247   0.553   4.262   3.508
   40SAPE  H16X 5248   0.640   4.208   3.552
   40SAPE  H16Y 5249   0.509   4.195   3.431
   40SAPE  C317 5250   0.452   4.285   3.622
   40SAPE  H17X 5251   0.417   4.184   3.654
   40SAPE  H17Y 5252   0.365   4.342   3.583
   40SAPE  C318 5253   0.506   4.356   3.748
   40SAPE  H18X 5254   0.427   4.358   3.826
   40SAPE  H18Y 5255   0.535   4.460   3.725
   40SAPE  H18Z 5256   0.595   4.302   3.788
   41CHL1    C3 5257   2.495   3.276   5.730
   41CHL1    H3 5258   2.592   3.223   5.715
   41CHL1    O3 5259   2.477   3.304   5.867
   41CHL1   H3' 5260   2.400   3.361   5.873
   41CHL1    C4 5261   2.495   3.408   5.650
   41CHL1   H4A 5262   2.401   3.464   5.670
   41CHL1   H4B 5263   2.578   3.471   5.689
   41CHL1    C5 5264   2.509   3.376   5.502
   41CHL1    C6 5265   2.615   3.418   5.432
   41CHL1    H6 5266   2.691   3.480   5.482
   41CHL1    C7 5267   2.637   3.388   5.288
   41CHL1   H7A 5268   2.680   3.475   5.234
   41CHL1   H7B 5269   2.709   3.304   5.277
   41CHL1    C8 5270   2.505   3.348   5.219
   41CHL1    H8 5271   2.442   3.440   5.215
   41CHL1   C14 5272   2.531   3.298   5.078
   41CHL1   H14 5273   2.585   3.201   5.088
   41CHL1   C15 5274   2.620   3.384   4.988
   41CHL1  H15A 5275   2.586   3.490   4.996
   41CHL1  H15B 5276   2.727   3.378   5.014
   41CHL1   C16 5277   2.592   3.331   4.847
   41CHL1  H16A 5278   2.577   3.417   4.779
   41CHL1  H16B 5279   2.676   3.269   4.809
   41CHL1   C17 5280   2.463   3.243   4.856
   41CHL1   H17 5281   2.496   3.137   4.856
   41CHL1   C13 5282   2.405   3.270   4.997
   41CHL1   C18 5283   2.315   3.395   4.990
   41CHL1  H18A 5284   2.225   3.378   4.928
   41CHL1  H18B 5285   2.279   3.423   5.091
   41CHL1  H18C 5286   2.370   3.482   4.948
   41CHL1   C12 5287   2.336   3.153   5.070
   41CHL1  H12A 5288   2.245   3.118   5.019
   41CHL1  H12B 5289   2.410   3.071   5.068
   41CHL1   C11 5290   2.305   3.186   5.217
   41CHL1  H11A 5291   2.223   3.260   5.215
   41CHL1  H11B 5292   2.266   3.096   5.268
   41CHL1    C9 5293   2.429   3.240   5.297
   41CHL1    H9 5294   2.500   3.154   5.303
   41CHL1   C10 5295   2.400   3.282   5.444
   41CHL1   C19 5296   2.260   3.347   5.449
   41CHL1  H19A 5297   2.182   3.268   5.435
   41CHL1  H19B 5298   2.239   3.396   5.545
   41CHL1  H19C 5299   2.248   3.421   5.368
   41CHL1    C1 5300   2.398   3.156   5.533
   41CHL1   H1A 5301   2.317   3.088   5.498
   41CHL1   H1B 5302   2.495   3.103   5.521
   41CHL1    C2 5303   2.381   3.186   5.683
   41CHL1   H2A 5304   2.381   3.092   5.741
   41CHL1   H2B 5305   2.283   3.236   5.700
   41CHL1   C20 5306   2.372   3.263   4.734
   41CHL1   H20 5307   2.337   3.369   4.731
   41CHL1   C21 5308   2.249   3.172   4.743
   41CHL1  H21A 5309   2.189   3.191   4.834
   41CHL1  H21B 5310   2.280   3.065   4.743
   41CHL1  H21C 5311   2.180   3.190   4.658
   41CHL1   C22 5312   2.449   3.239   4.601
   41CHL1  H22A 5313   2.527   3.316   4.588
   41CHL1  H22B 5314   2.500   3.140   4.606
   41CHL1   C23 5315   2.358   3.241   4.476
   41CHL1  H23A 5316   2.297   3.148   4.480
   41CHL1  H23B 5317   2.288   3.327   4.482
   41CHL1   C24 5318   2.436   3.247   4.344
   41CHL1  H24A 5319   2.476   3.350   4.333
   41CHL1  H24B 5320   2.523   3.180   4.347
   41CHL1   C25 5321   2.351   3.215   4.218
   41CHL1   H25 5322   2.270   3.291   4.215
   41CHL1   C26 5323   2.437   3.231   4.091
   41CHL1  H26A 5324   2.533   3.278   4.117
   41CHL1  H26B 5325   2.461   3.132   4.047
   41CHL1  H26C 5326   2.384   3.291   4.015
   41CHL1   C27 5327   2.286   3.075   4.217
   41CHL1  H27A 5328   2.352   3.000   4.169
   41CHL1  H27B 5329   2.264   3.038   4.319
   41CHL1  H27C 5330   2.191   3.078   4.160
   42CHL1    C3 5331   3.394   3.402   5.733
   42CHL1    H3 5332   3.500   3.370   5.742
   42CHL1    O3 5333   3.340   3.421   5.862
   42CHL1   H3' 5334   3.416   3.442   5.918
   42CHL1    C4 5335   3.386   3.533   5.654
   42CHL1   H4A 5336   3.285   3.577   5.669
   42CHL1   H4B 5337   3.458   3.605   5.701
   42CHL1    C5 5338   3.412   3.514   5.506
   42CHL1    C6 5339   3.504   3.585   5.440
   42CHL1    H6 5340   3.564   3.656   5.498
   42CHL1    C7 5341   3.528   3.577   5.292
   42CHL1   H7A 5342   3.534   3.679   5.248
   42CHL1   H7B 5343   3.626   3.529   5.274
   42CHL1    C8 5344   3.420   3.499   5.215
   42CHL1    H8 5345   3.335   3.568   5.198
   42CHL1   C14 5346   3.473   3.448   5.081
   42CHL1   H14 5347   3.547   3.367   5.107
   42CHL1   C15 5348   3.552   3.545   4.991
   42CHL1  H15A 5349   3.496   3.640   4.982
   42CHL1  H15B 5350   3.653   3.566   5.030
   42CHL1   C16 5351   3.555   3.472   4.856
   42CHL1  H16A 5352   3.521   3.541   4.777
   42CHL1  H16B 5353   3.658   3.438   4.831
   42CHL1   C17 5354   3.459   3.349   4.869
   42CHL1   H17 5355   3.523   3.263   4.901
   42CHL1   C13 5356   3.370   3.380   4.991
   42CHL1   C18 5357   3.262   3.481   4.946
   42CHL1  H18A 5358   3.305   3.565   4.889
   42CHL1  H18B 5359   3.187   3.431   4.882
   42CHL1  H18C 5360   3.208   3.522   5.033
   42CHL1   C12 5361   3.305   3.264   5.069
   42CHL1  H12A 5362   3.222   3.217   5.013
   42CHL1  H12B 5363   3.381   3.186   5.086
   42CHL1   C11 5364   3.256   3.307   5.208
   42CHL1  H11A 5365   3.171   3.377   5.192
   42CHL1  H11B 5366   3.218   3.219   5.264
   42CHL1    C9 5367   3.368   3.376   5.291
   42CHL1    H9 5368   3.453   3.304   5.296
   42CHL1   C10 5369   3.329   3.404   5.439
   42CHL1   C19 5370   3.182   3.447   5.441
   42CHL1  H19A 5371   3.171   3.525   5.365
   42CHL1  H19B 5372   3.113   3.364   5.417
   42CHL1  H19C 5373   3.149   3.489   5.539
   42CHL1    C1 5374   3.349   3.274   5.521
   42CHL1   H1A 5375   3.286   3.194   5.477
   42CHL1   H1B 5376   3.455   3.241   5.515
   42CHL1    C2 5377   3.311   3.292   5.668
   42CHL1   H2A 5378   3.325   3.197   5.725
   42CHL1   H2B 5379   3.204   3.321   5.676
   42CHL1   C20 5380   3.394   3.311   4.735
   42CHL1   H20 5381   3.331   3.397   4.703
   42CHL1   C21 5382   3.302   3.188   4.753
   42CHL1  H21A 5383   3.354   3.108   4.810
   42CHL1  H21B 5384   3.270   3.147   4.656
   42CHL1  H21C 5385   3.209   3.217   4.807
   42CHL1   C22 5386   3.499   3.287   4.623
   42CHL1  H22A 5387   3.563   3.377   4.612
   42CHL1  H22B 5388   3.565   3.203   4.653
   42CHL1   C23 5389   3.441   3.257   4.483
   42CHL1  H23A 5390   3.527   3.244   4.413
   42CHL1  H23B 5391   3.386   3.161   4.483
   42CHL1   C24 5392   3.351   3.370   4.429
   42CHL1  H24A 5393   3.271   3.392   4.503
   42CHL1  H24B 5394   3.412   3.462   4.416
   42CHL1   C25 5395   3.279   3.338   4.296
   42CHL1   H25 5396   3.212   3.250   4.312
   42CHL1   C26 5397   3.192   3.459   4.258
   42CHL1  H26A 5398   3.254   3.551   4.258
   42CHL1  H26B 5399   3.148   3.449   4.157
   42CHL1  H26C 5400   3.109   3.473   4.331
   42CHL1   C27 5401   3.376   3.303   4.182
   42CHL1  H27A 5402   3.435   3.393   4.154
   42CHL1  H27B 5403   3.445   3.222   4.212
   42CHL1  H27C 5404   3.322   3.269   4.092
   43CHL1    C3 5405   3.594   2.772   5.752
   43CHL1    H3 5406   3.619   2.881   5.755
   43CHL1    O3 5407   3.565   2.729   5.884
   43CHL1   H3' 5408   3.646   2.748   5.934
   43CHL1    C4 5409   3.475   2.749   5.658
   43CHL1   H4A 5410   3.447   2.642   5.663
   43CHL1   H4B 5411   3.388   2.806   5.698
   43CHL1    C5 5412   3.514   2.791   5.517
   43CHL1    C6 5413   3.455   2.896   5.458
   43CHL1    H6 5414   3.375   2.950   5.510
   43CHL1    C7 5415   3.494   2.942   5.321
   43CHL1   H7A 5416   3.405   2.977   5.265
   43CHL1   H7B 5417   3.564   3.028   5.329
   43CHL1    C8 5418   3.565   2.831   5.238
   43CHL1    H8 5419   3.492   2.750   5.216
   43CHL1   C14 5420   3.621   2.890   5.111
   43CHL1   H14 5421   3.704   2.954   5.147
   43CHL1   C15 5422   3.531   2.984   5.031
   43CHL1  H15A 5423   3.425   2.954   5.035
   43CHL1  H15B 5424   3.546   3.085   5.073
   43CHL1   C16 5425   3.585   2.979   4.889
   43CHL1  H16A 5426   3.511   2.928   4.824
   43CHL1  H16B 5427   3.606   3.080   4.848
   43CHL1   C17 5428   3.716   2.896   4.895
   43CHL1   H17 5429   3.794   2.968   4.930
   43CHL1   C13 5430   3.691   2.798   5.013
   43CHL1   C18 5431   3.596   2.685   4.966
   43CHL1  H18A 5432   3.551   2.632   5.052
   43CHL1  H18B 5433   3.515   2.724   4.902
   43CHL1  H18C 5434   3.653   2.611   4.907
   43CHL1   C12 5435   3.813   2.743   5.090
   43CHL1  H12A 5436   3.864   2.669   5.027
   43CHL1  H12B 5437   3.884   2.826   5.110
   43CHL1   C11 5438   3.771   2.680   5.226
   43CHL1  H11A 5439   3.718   2.585   5.203
   43CHL1  H11B 5440   3.863   2.655   5.282
   43CHL1    C9 5441   3.681   2.772   5.317
   43CHL1    H9 5442   3.747   2.858   5.342
   43CHL1   C10 5443   3.633   2.715   5.454
   43CHL1   C19 5444   3.597   2.566   5.434
   43CHL1  H19A 5445   3.558   2.519   5.526
   43CHL1  H19B 5446   3.521   2.555   5.353
   43CHL1  H19C 5447   3.687   2.508   5.405
   43CHL1    C1 5448   3.748   2.731   5.556
   43CHL1   H1A 5449   3.834   2.671   5.519
   43CHL1   H1B 5450   3.780   2.838   5.558
   43CHL1    C2 5451   3.712   2.692   5.701
   43CHL1   H2A 5452   3.799   2.706   5.768
   43CHL1   H2B 5453   3.683   2.585   5.701
   43CHL1   C20 5454   3.759   2.845   4.758
   43CHL1   H20 5455   3.712   2.745   4.739
   43CHL1   C21 5456   3.912   2.831   4.763
   43CHL1  H21A 5457   3.958   2.930   4.779
   43CHL1  H21B 5458   3.950   2.790   4.668
   43CHL1  H21C 5459   3.943   2.764   4.846
   43CHL1   C22 5460   3.723   2.936   4.637
   43CHL1  H22A 5461   3.626   2.989   4.649
   43CHL1  H22B 5462   3.801   3.014   4.625
   43CHL1   C23 5463   3.706   2.859   4.505
   43CHL1  H23A 5464   3.794   2.793   4.490
   43CHL1  H23B 5465   3.614   2.797   4.516
   43CHL1   C24 5466   3.692   2.949   4.382
   43CHL1  H24A 5467   3.617   3.028   4.404
   43CHL1  H24B 5468   3.790   2.998   4.366
   43CHL1   C25 5469   3.650   2.880   4.249
   43CHL1   H25 5470   3.645   2.961   4.171
   43CHL1   C26 5471   3.755   2.780   4.199
   43CHL1  H26A 5472   3.783   2.708   4.279
   43CHL1  H26B 5473   3.717   2.722   4.113
   43CHL1  H26C 5474   3.847   2.833   4.168
   43CHL1   C27 5475   3.510   2.818   4.255
   43CHL1  H27A 5476   3.505   2.738   4.332
   43CHL1  H27B 5477   3.434   2.895   4.279
   43CHL1  H27C 5478   3.484   2.772   4.157
   44CHL1    C3 5479   1.586   3.353   5.754
   44CHL1    H3 5480   1.665   3.433   5.750
   44CHL1    O3 5481   1.596   3.282   5.876
   44CHL1   H3' 5482   1.693   3.293   5.889
   44CHL1    C4 5483   1.450   3.423   5.744
   44CHL1   H4A 5484   1.370   3.352   5.773
   44CHL1   H4B 5485   1.448   3.505   5.820
   44CHL1    C5 5486   1.426   3.477   5.604
   44CHL1    C6 5487   1.400   3.606   5.579
   44CHL1    H6 5488   1.400   3.679   5.661
   44CHL1    C7 5489   1.366   3.657   5.442
   44CHL1   H7A 5490   1.288   3.736   5.447
   44CHL1   H7B 5491   1.456   3.703   5.395
   44CHL1    C8 5492   1.317   3.541   5.351
   44CHL1    H8 5493   1.222   3.501   5.394
   44CHL1   C14 5494   1.290   3.591   5.210
   44CHL1   H14 5495   1.387   3.630   5.172
   44CHL1   C15 5496   1.190   3.706   5.197
   44CHL1  H15A 5497   1.104   3.690   5.265
   44CHL1  H15B 5498   1.237   3.803   5.221
   44CHL1   C16 5499   1.144   3.696   5.051
   44CHL1  H16A 5500   1.034   3.683   5.049
   44CHL1  H16B 5501   1.174   3.785   4.991
   44CHL1   C17 5502   1.214   3.572   4.989
   44CHL1   H17 5503   1.312   3.609   4.952
   44CHL1   C13 5504   1.244   3.484   5.111
   44CHL1   C18 5505   1.111   3.422   5.162
   44CHL1  H18A 5506   1.128   3.360   5.252
   44CHL1  H18B 5507   1.035   3.498   5.190
   44CHL1  H18C 5508   1.063   3.358   5.086
   44CHL1   C12 5509   1.360   3.384   5.099
   44CHL1  H12A 5510   1.333   3.300   5.032
   44CHL1  H12B 5511   1.448   3.436   5.055
   44CHL1   C11 5512   1.399   3.325   5.236
   44CHL1  H11A 5513   1.316   3.258   5.262
   44CHL1  H11B 5514   1.490   3.262   5.225
   44CHL1    C9 5515   1.421   3.430   5.349
   44CHL1    H9 5516   1.517   3.481   5.323
   44CHL1   C10 5517   1.440   3.372   5.492
   44CHL1   C19 5518   1.336   3.260   5.514
   44CHL1  H19A 5519   1.234   3.293   5.485
   44CHL1  H19B 5520   1.364   3.173   5.452
   44CHL1  H19C 5521   1.332   3.222   5.618
   44CHL1    C1 5522   1.583   3.313   5.503
   44CHL1   H1A 5523   1.595   3.234   5.425
   44CHL1   H1B 5524   1.656   3.393   5.481
   44CHL1    C2 5525   1.613   3.253   5.641
   44CHL1   H2A 5526   1.721   3.223   5.644
   44CHL1   H2B 5527   1.551   3.162   5.655
   44CHL1   C20 5528   1.140   3.515   4.866
   44CHL1   H20 5529   1.056   3.449   4.898
   44CHL1   C21 5530   1.242   3.434   4.782
   44CHL1  H21A 5531   1.288   3.353   4.841
   44CHL1  H21B 5532   1.324   3.501   4.748
   44CHL1  H21C 5533   1.195   3.389   4.693
   44CHL1   C22 5534   1.080   3.626   4.775
   44CHL1  H22A 5535   1.026   3.703   4.833
   44CHL1  H22B 5536   1.168   3.675   4.727
   44CHL1   C23 5537   0.980   3.583   4.666
   44CHL1  H23A 5538   1.019   3.493   4.614
   44CHL1  H23B 5539   0.884   3.559   4.716
   44CHL1   C24 5540   0.955   3.693   4.561
   44CHL1  H24A 5541   0.935   3.789   4.612
   44CHL1  H24B 5542   1.049   3.703   4.503
   44CHL1   C25 5543   0.839   3.680   4.460
   44CHL1   H25 5544   0.842   3.577   4.418
   44CHL1   C26 5545   0.703   3.709   4.525
   44CHL1  H26A 5546   0.620   3.685   4.455
   44CHL1  H26B 5547   0.690   3.651   4.617
   44CHL1  H26C 5548   0.696   3.817   4.552
   44CHL1   C27 5549   0.860   3.780   4.345
   44CHL1  H27A 5550   0.847   3.884   4.383
   44CHL1  H27B 5551   0.963   3.772   4.304
   44CHL1  H27C 5552   0.787   3.763   4.264
   45CHL1    C3 5553   1.955   1.360   5.764
   45CHL1    H3 5554   1.890   1.451   5.767
   45CHL1    O3 5555   1.959   1.300   5.893
   45CHL1   H3' 5556   2.002   1.367   5.950
   45CHL1    C4 5557   1.896   1.261   5.663
   45CHL1   H4A 5558   1.951   1.165   5.673
   45CHL1   H4B 5559   1.792   1.239   5.694
   45CHL1    C5 5560   1.905   1.312   5.520
   45CHL1    C6 5561   1.797   1.321   5.440
   45CHL1    H6 5562   1.699   1.290   5.478
   45CHL1    C7 5563   1.806   1.356   5.294
   45CHL1   H7A 5564   1.738   1.291   5.235
   45CHL1   H7B 5565   1.776   1.462   5.277
   45CHL1    C8 5566   1.952   1.336   5.242
   45CHL1    H8 5567   1.973   1.227   5.249
   45CHL1   C14 5568   1.965   1.373   5.096
   45CHL1   H14 5569   1.933   1.480   5.087
   45CHL1   C15 5570   1.879   1.295   4.996
   45CHL1  H15A 5571   1.900   1.186   5.007
   45CHL1  H15B 5572   1.771   1.312   5.009
   45CHL1   C16 5573   1.932   1.345   4.863
   45CHL1  H16A 5574   1.922   1.267   4.785
   45CHL1  H16B 5575   1.874   1.435   4.831
   45CHL1   C17 5576   2.081   1.389   4.886
   45CHL1   H17 5577   2.085   1.500   4.871
   45CHL1   C13 5578   2.108   1.367   5.039
   45CHL1   C18 5579   2.168   1.226   5.061
   45CHL1  H18A 5580   2.124   1.154   4.991
   45CHL1  H18B 5581   2.278   1.226   5.047
   45CHL1  H18C 5582   2.153   1.189   5.164
   45CHL1   C12 5583   2.190   1.472   5.115
   45CHL1  H12A 5584   2.294   1.476   5.077
   45CHL1  H12B 5585   2.144   1.572   5.099
   45CHL1   C11 5586   2.190   1.440   5.267
   45CHL1  H11A 5587   2.255   1.351   5.279
   45CHL1  H11B 5588   2.240   1.522   5.322
   45CHL1    C9 5589   2.048   1.415   5.331
   45CHL1    H9 5590   2.004   1.518   5.339
   45CHL1   C10 5591   2.047   1.356   5.476
   45CHL1   C19 5592   2.136   1.231   5.476
   45CHL1  H19A 5593   2.099   1.164   5.396
   45CHL1  H19B 5594   2.242   1.256   5.456
   45CHL1  H19C 5595   2.134   1.176   5.572
   45CHL1    C1 5596   2.103   1.455   5.580
   45CHL1   H1A 5597   2.209   1.471   5.554
   45CHL1   H1B 5598   2.049   1.552   5.574
   45CHL1    C2 5599   2.097   1.402   5.725
   45CHL1   H2A 5600   2.131   1.482   5.793
   45CHL1   H2B 5601   2.166   1.316   5.737
   45CHL1   C20 5602   2.170   1.326   4.778
   45CHL1   H20 5603   2.154   1.215   4.780
   45CHL1   C21 5604   2.319   1.354   4.800
   45CHL1  H21A 5605   2.338   1.461   4.818
   45CHL1  H21B 5606   2.378   1.322   4.711
   45CHL1  H21C 5607   2.358   1.295   4.885
   45CHL1   C22 5608   2.133   1.375   4.636
   45CHL1  H22A 5609   2.024   1.390   4.624
   45CHL1  H22B 5610   2.182   1.474   4.620
   45CHL1   C23 5611   2.177   1.280   4.523
   45CHL1  H23A 5612   2.284   1.252   4.536
   45CHL1  H23B 5613   2.117   1.186   4.527
   45CHL1   C24 5614   2.158   1.346   4.386
   45CHL1  H24A 5615   2.050   1.366   4.370
   45CHL1  H24B 5616   2.210   1.445   4.388
   45CHL1   C25 5617   2.212   1.267   4.266
   45CHL1   H25 5618   2.160   1.169   4.261
   45CHL1   C26 5619   2.183   1.345   4.138
   45CHL1  H26A 5620   2.218   1.289   4.049
   45CHL1  H26B 5621   2.074   1.362   4.129
   45CHL1  H26C 5622   2.233   1.444   4.140
   45CHL1   C27 5623   2.363   1.241   4.278
   45CHL1  H27A 5624   2.384   1.157   4.347
   45CHL1  H27B 5625   2.407   1.218   4.179
   45CHL1  H27C 5626   2.414   1.331   4.317
   46CHL1    C3 5627   1.235   2.660   5.706
   46CHL1    H3 5628   1.272   2.748   5.649
   46CHL1    O3 5629   1.251   2.685   5.845
   46CHL1   H3' 5630   1.217   2.607   5.892
   46CHL1    C4 5631   1.087   2.635   5.672
   46CHL1   H4A 5632   1.052   2.550   5.734
   46CHL1   H4B 5633   1.030   2.724   5.707
   46CHL1    C5 5634   1.062   2.606   5.524
   46CHL1    C6 5635   0.972   2.678   5.456
   46CHL1    H6 5636   0.914   2.755   5.510
   46CHL1    C7 5637   0.942   2.667   5.310
   46CHL1   H7A 5638   0.835   2.640   5.296
   46CHL1   H7B 5639   0.953   2.767   5.265
   46CHL1    C8 5640   1.027   2.563   5.233
   46CHL1    H8 5641   0.963   2.472   5.225
   46CHL1   C14 5642   1.067   2.612   5.093
   46CHL1   H14 5643   1.152   2.684   5.109
   46CHL1   C15 5644   0.968   2.694   5.011
   46CHL1  H15A 5645   0.870   2.642   5.013
   46CHL1  H15B 5646   0.954   2.797   5.048
   46CHL1   C16 5647   1.032   2.692   4.872
   46CHL1  H16A 5648   0.957   2.655   4.799
   46CHL1  H16B 5649   1.068   2.792   4.841
   46CHL1   C17 5650   1.150   2.591   4.873
   46CHL1   H17 5651   1.243   2.650   4.891
   46CHL1   C13 5652   1.124   2.506   4.999
   46CHL1   C18 5653   1.016   2.399   4.968
   46CHL1  H18A 5654   1.054   2.324   4.896
   46CHL1  H18B 5655   0.985   2.345   5.059
   46CHL1  H18C 5656   0.925   2.445   4.924
   46CHL1   C12 5657   1.248   2.445   5.069
   46CHL1  H12A 5658   1.283   2.355   5.014
   46CHL1  H12B 5659   1.330   2.521   5.066
   46CHL1   C11 5660   1.223   2.408   5.217
   46CHL1  H11A 5661   1.153   2.321   5.218
   46CHL1  H11B 5662   1.318   2.378   5.263
   46CHL1    C9 5663   1.159   2.524   5.300
   46CHL1    H9 5664   1.226   2.612   5.288
   46CHL1   C10 5665   1.153   2.503   5.454
   46CHL1   C19 5666   1.093   2.364   5.479
   46CHL1  H19A 5667   1.086   2.346   5.588
   46CHL1  H19B 5668   0.991   2.355   5.435
   46CHL1  H19C 5669   1.156   2.284   5.436
   46CHL1    C1 5670   1.298   2.512   5.512
   46CHL1   H1A 5671   1.354   2.421   5.484
   46CHL1   H1B 5672   1.349   2.598   5.463
   46CHL1    C2 5673   1.312   2.534   5.664
   46CHL1   H2A 5674   1.419   2.543   5.692
   46CHL1   H2B 5675   1.268   2.448   5.719
   46CHL1   C20 5676   1.162   2.526   4.734
   46CHL1   H20 5677   1.065   2.478   4.713
   46CHL1   C21 5678   1.274   2.421   4.732
   46CHL1  H21A 5679   1.283   2.375   4.631
   46CHL1  H21B 5680   1.253   2.339   4.803
   46CHL1  H21C 5681   1.371   2.468   4.758
   46CHL1   C22 5682   1.185   2.631   4.620
   46CHL1  H22A 5683   1.123   2.721   4.636
   46CHL1  H22B 5684   1.291   2.664   4.627
   46CHL1   C23 5685   1.156   2.585   4.475
   46CHL1  H23A 5686   1.208   2.655   4.406
   46CHL1  H23B 5687   1.197   2.483   4.457
   46CHL1   C24 5688   1.006   2.590   4.439
   46CHL1  H24A 5689   0.949   2.523   4.506
   46CHL1  H24B 5690   0.968   2.692   4.458
   46CHL1   C25 5691   0.974   2.553   4.292
   46CHL1   H25 5692   1.061   2.499   4.248
   46CHL1   C26 5693   0.853   2.458   4.285
   46CHL1  H26A 5694   0.771   2.498   4.346
   46CHL1  H26B 5695   0.819   2.446   4.180
   46CHL1  H26C 5696   0.879   2.357   4.324
   46CHL1   C27 5697   0.946   2.680   4.209
   46CHL1  H27A 5698   0.921   2.653   4.104
   46CHL1  H27B 5699   0.861   2.737   4.252
   46CHL1  H27C 5700   1.035   2.746   4.208
   47CHL1    C3 5701   2.468   0.778   5.741
   47CHL1    H3 5702   2.512   0.875   5.711
   47CHL1    O3 5703   2.502   0.754   5.877
   47CHL1   H3' 5704   2.484   0.835   5.926
   47CHL1    C4 5705   2.316   0.783   5.719
   47CHL1   H4A 5706   2.274   0.686   5.754
   47CHL1   H4B 5707   2.272   0.861   5.785
   47CHL1    C5 5708   2.277   0.804   5.573
   47CHL1    C6 5709   2.181   0.888   5.533
   47CHL1    H6 5710   2.125   0.945   5.608
   47CHL1    C7 5711   2.142   0.906   5.388
   47CHL1   H7A 5712   2.032   0.913   5.373
   47CHL1   H7B 5713   2.187   1.002   5.356
   47CHL1    C8 5714   2.205   0.808   5.285
   47CHL1    H8 5715   2.148   0.714   5.283
   47CHL1   C14 5716   2.200   0.869   5.145
   47CHL1   H14 5717   2.250   0.969   5.155
   47CHL1   C15 5718   2.061   0.897   5.083
   47CHL1  H15A 5719   1.993   0.813   5.106
   47CHL1  H15B 5720   2.017   0.990   5.124
   47CHL1   C16 5721   2.089   0.905   4.932
   47CHL1  H16A 5722   2.035   0.822   4.884
   47CHL1  H16B 5723   2.053   0.998   4.885
   47CHL1   C17 5724   2.244   0.887   4.915
   47CHL1   H17 5725   2.288   0.988   4.934
   47CHL1   C13 5726   2.280   0.798   5.036
   47CHL1   C18 5727   2.224   0.656   5.013
   47CHL1  H18A 5728   2.117   0.654   4.983
   47CHL1  H18B 5729   2.282   0.602   4.936
   47CHL1  H18C 5730   2.231   0.598   5.106
   47CHL1   C12 5731   2.427   0.789   5.080
   47CHL1  H12A 5732   2.484   0.729   5.006
   47CHL1  H12B 5733   2.469   0.891   5.084
   47CHL1   C11 5734   2.440   0.721   5.219
   47CHL1  H11A 5735   2.416   0.614   5.210
   47CHL1  H11B 5736   2.547   0.729   5.247
   47CHL1    C9 5737   2.350   0.786   5.328
   47CHL1    H9 5738   2.387   0.890   5.338
   47CHL1   C10 5739   2.362   0.727   5.471
   47CHL1   C19 5740   2.296   0.591   5.476
   47CHL1  H19A 5741   2.194   0.590   5.434
   47CHL1  H19B 5742   2.361   0.523   5.418
   47CHL1  H19C 5743   2.289   0.549   5.579
   47CHL1    C1 5744   2.511   0.705   5.510
   47CHL1   H1A 5745   2.556   0.626   5.445
   47CHL1   H1B 5746   2.569   0.797   5.495
   47CHL1    C2 5747   2.533   0.669   5.657
   47CHL1   H2A 5748   2.641   0.662   5.679
   47CHL1   H2B 5749   2.487   0.570   5.681
   47CHL1   C20 5750   2.294   0.845   4.775
   47CHL1   H20 5751   2.288   0.734   4.769
   47CHL1   C21 5752   2.441   0.888   4.757
   47CHL1  H21A 5753   2.477   0.859   4.657
   47CHL1  H21B 5754   2.507   0.842   4.832
   47CHL1  H21C 5755   2.449   0.999   4.766
   47CHL1   C22 5756   2.211   0.904   4.658
   47CHL1  H22A 5757   2.103   0.893   4.679
   47CHL1  H22B 5758   2.232   1.013   4.651
   47CHL1   C23 5759   2.232   0.839   4.519
   47CHL1  H23A 5760   2.148   0.871   4.453
   47CHL1  H23B 5761   2.325   0.879   4.473
   47CHL1   C24 5762   2.240   0.686   4.523
   47CHL1  H24A 5763   2.347   0.658   4.538
   47CHL1  H24B 5764   2.184   0.646   4.609
   47CHL1   C25 5765   2.188   0.611   4.399
   47CHL1   H25 5766   2.223   0.506   4.413
   47CHL1   C26 5767   2.035   0.602   4.390
   47CHL1  H26A 5768   1.992   0.558   4.482
   47CHL1  H26B 5769   1.990   0.703   4.373
   47CHL1  H26C 5770   2.005   0.537   4.305
   47CHL1   C27 5771   2.247   0.664   4.269
   47CHL1  H27A 5772   2.358   0.657   4.271
   47CHL1  H27B 5773   2.208   0.605   4.182
   47CHL1  H27C 5774   2.218   0.770   4.254
   48CHL1    C3 5775   1.187   1.453   5.722
   48CHL1    H3 5776   1.140   1.552   5.700
   48CHL1    O3 5777   1.171   1.426   5.861
   48CHL1   H3' 5778   1.259   1.410   5.897
   48CHL1    C4 5779   1.117   1.344   5.640
   48CHL1   H4A 5780   1.157   1.246   5.674
   48CHL1   H4B 5781   1.009   1.345   5.667
   48CHL1    C5 5782   1.138   1.361   5.491
   48CHL1    C6 5783   1.034   1.373   5.407
   48CHL1    H6 5784   0.932   1.369   5.447
   48CHL1    C7 5785   1.047   1.382   5.258
   48CHL1   H7A 5786   0.969   1.321   5.209
   48CHL1   H7B 5787   1.033   1.487   5.225
   48CHL1    C8 5788   1.187   1.333   5.210
   48CHL1    H8 5789   1.193   1.223   5.227
   48CHL1   C14 5790   1.202   1.360   5.061
   48CHL1   H14 5791   1.197   1.471   5.051
   48CHL1   C15 5792   1.094   1.305   4.966
   48CHL1  H15A 5793   1.075   1.198   4.990
   48CHL1  H15B 5794   0.999   1.361   4.973
   48CHL1   C16 5795   1.159   1.317   4.828
   48CHL1  H16A 5796   1.156   1.218   4.777
   48CHL1  H16B 5797   1.107   1.392   4.765
   48CHL1   C17 5798   1.307   1.359   4.852
   48CHL1   H17 5799   1.307   1.471   4.854
   48CHL1   C13 5800   1.336   1.319   4.999
   48CHL1   C18 5801   1.358   1.166   5.007
   48CHL1  H18A 5802   1.281   1.110   4.950
   48CHL1  H18B 5803   1.457   1.139   4.964
   48CHL1  H18C 5804   1.356   1.130   5.112
   48CHL1   C12 5805   1.445   1.396   5.076
   48CHL1  H12A 5806   1.546   1.369   5.039
   48CHL1  H12B 5807   1.429   1.504   5.055
   48CHL1   C11 5808   1.438   1.373   5.228
   48CHL1  H11A 5809   1.468   1.268   5.244
   48CHL1  H11B 5810   1.514   1.438   5.278
   48CHL1    C9 5811   1.298   1.400   5.292
   48CHL1    H9 5812   1.280   1.510   5.281
   48CHL1   C10 5813   1.286   1.368   5.444
   48CHL1   C19 5814   1.357   1.232   5.470
   48CHL1  H19A 5815   1.339   1.194   5.572
   48CHL1  H19B 5816   1.322   1.156   5.398
   48CHL1  H19C 5817   1.467   1.243   5.459
   48CHL1    C1 5818   1.354   1.478   5.532
   48CHL1   H1A 5819   1.463   1.480   5.509
   48CHL1   H1B 5820   1.313   1.577   5.504
   48CHL1    C2 5821   1.336   1.459   5.685
   48CHL1   H2A 5822   1.385   1.542   5.739
   48CHL1   H2B 5823   1.384   1.363   5.715
   48CHL1   C20 5824   1.399   1.321   4.735
   48CHL1   H20 5825   1.389   1.212   4.714
   48CHL1   C21 5826   1.547   1.349   4.768
   48CHL1  H21A 5827   1.611   1.338   4.678
   48CHL1  H21B 5828   1.584   1.277   4.844
   48CHL1  H21C 5829   1.558   1.451   4.808
   48CHL1   C22 5830   1.353   1.399   4.608
   48CHL1  H22A 5831   1.247   1.373   4.586
   48CHL1  H22B 5832   1.357   1.508   4.631
   48CHL1   C23 5833   1.430   1.376   4.476
   48CHL1  H23A 5834   1.534   1.416   4.485
   48CHL1  H23B 5835   1.436   1.268   4.456
   48CHL1   C24 5836   1.359   1.447   4.359
   48CHL1  H24A 5837   1.263   1.394   4.337
   48CHL1  H24B 5838   1.333   1.550   4.393
   48CHL1   C25 5839   1.440   1.460   4.229
   48CHL1   H25 5840   1.539   1.506   4.254
   48CHL1   C26 5841   1.466   1.324   4.163
   48CHL1  H26A 5842   1.516   1.337   4.064
   48CHL1  H26B 5843   1.532   1.262   4.226
   48CHL1  H26C 5844   1.370   1.270   4.147
   48CHL1   C27 5845   1.369   1.554   4.130
   48CHL1  H27A 5846   1.270   1.512   4.103
   48CHL1  H27B 5847   1.355   1.654   4.175
   48CHL1  H27C 5848   1.429   1.565   4.037
   49CHL1    C3 5849   4.495   4.021   5.743
   49CHL1    H3 5850   4.385   4.005   5.740
   49CHL1    O3 5851   4.537   4.013   5.878
   49CHL1   H3' 5852   4.506   4.094   5.922
   49CHL1    C4 5853   4.567   3.911   5.661
   49CHL1   H4A 5854   4.676   3.920   5.683
   49CHL1   H4B 5855   4.535   3.813   5.703
   49CHL1    C5 5856   4.545   3.917   5.510
   49CHL1    C6 5857   4.507   3.810   5.437
   49CHL1    H6 5858   4.493   3.712   5.487
   49CHL1    C7 5859   4.493   3.810   5.287
   49CHL1   H7A 5860   4.544   3.722   5.243
   49CHL1   H7B 5861   4.385   3.804   5.259
   49CHL1    C8 5862   4.553   3.938   5.223
   49CHL1    H8 5863   4.663   3.929   5.229
   49CHL1   C14 5864   4.517   3.949   5.075
   49CHL1   H14 5865   4.405   3.951   5.068
   49CHL1   C15 5866   4.563   3.835   4.982
   49CHL1  H15A 5867   4.663   3.799   5.014
   49CHL1  H15B 5868   4.492   3.750   4.985
   49CHL1   C16 5869   4.572   3.898   4.842
   49CHL1  H16A 5870   4.676   3.886   4.805
   49CHL1  H16B 5871   4.503   3.850   4.770
   49CHL1   C17 5872   4.537   4.049   4.858
   49CHL1   H17 5873   4.427   4.057   4.845
   49CHL1   C13 5874   4.565   4.078   5.008
   49CHL1   C18 5875   4.718   4.092   5.024
   49CHL1  H18A 5876   4.751   4.184   4.972
   49CHL1  H18B 5877   4.749   4.101   5.130
   49CHL1  H18C 5878   4.772   4.006   4.980
   49CHL1   C12 5879   4.489   4.193   5.079
   49CHL1  H12A 5880   4.516   4.292   5.039
   49CHL1  H12B 5881   4.380   4.178   5.064
   49CHL1   C11 5882   4.521   4.197   5.230
   49CHL1  H11A 5883   4.625   4.235   5.240
   49CHL1  H11B 5884   4.455   4.273   5.277
   49CHL1    C9 5885   4.505   4.061   5.303
   49CHL1    H9 5886   4.394   4.047   5.312
   49CHL1   C10 5887   4.561   4.058   5.448
   49CHL1   C19 5888   4.712   4.094   5.447
   49CHL1  H19A 5889   4.727   4.201   5.420
   49CHL1  H19B 5890   4.758   4.080   5.547
   49CHL1  H19C 5891   4.769   4.031   5.376
   49CHL1    C1 5892   4.486   4.163   5.536
   49CHL1   H1A 5893   4.508   4.265   5.497
   49CHL1   H1B 5894   4.377   4.145   5.527
   49CHL1    C2 5895   4.525   4.159   5.685
   49CHL1   H2A 5896   4.467   4.236   5.741
   49CHL1   H2B 5897   4.633   4.183   5.698
   49CHL1   C20 5898   4.602   4.139   4.750
   49CHL1   H20 5899   4.711   4.150   4.771
   49CHL1   C21 5900   4.537   4.279   4.758
   49CHL1  H21A 5901   4.560   4.328   4.854
   49CHL1  H21B 5902   4.427   4.272   4.746
   49CHL1  H21C 5903   4.576   4.348   4.682
   49CHL1   C22 5904   4.592   4.080   4.606
   49CHL1  H22A 5905   4.648   3.984   4.601
   49CHL1  H22B 5906   4.485   4.057   4.587
   49CHL1   C23 5907   4.645   4.171   4.492
   49CHL1  H23A 5908   4.599   4.270   4.505
   49CHL1  H23B 5909   4.755   4.183   4.499
   49CHL1   C24 5910   4.605   4.120   4.352
   49CHL1  H24A 5911   4.663   4.029   4.325
   49CHL1  H24B 5912   4.500   4.090   4.359
   49CHL1   C25 5913   4.608   4.222   4.235
   49CHL1   H25 5914   4.524   4.195   4.166
   49CHL1   C26 5915   4.582   4.367   4.276
   49CHL1  H26A 5916   4.494   4.373   4.343
   49CHL1  H26B 5917   4.670   4.409   4.330
   49CHL1  H26C 5918   4.561   4.429   4.187
   49CHL1   C27 5919   4.733   4.207   4.148
   49CHL1  H27A 5920   4.746   4.294   4.081
   49CHL1  H27B 5921   4.822   4.196   4.213
   49CHL1  H27C 5922   4.724   4.116   4.086
   50CHL1    C3 5923   0.280   3.996   5.727
   50CHL1    H3 5924   0.326   3.899   5.697
   50CHL1    O3 5925   0.282   4.007   5.869
   50CHL1   H3' 5926   0.205   4.063   5.890
   50CHL1    C4 5927   0.361   4.110   5.665
   50CHL1   H4A 5928   0.314   4.206   5.695
   50CHL1   H4B 5929   0.464   4.109   5.708
   50CHL1    C5 5930   0.362   4.095   5.514
   50CHL1    C6 5931   0.475   4.089   5.443
   50CHL1    H6 5932   0.571   4.097   5.495
   50CHL1    C7 5933   0.479   4.078   5.293
   50CHL1   H7A 5934   0.550   4.152   5.250
   50CHL1   H7B 5935   0.516   3.977   5.265
   50CHL1    C8 5936   0.342   4.094   5.223
   50CHL1    H8 5937   0.321   4.203   5.216
   50CHL1   C14 5938   0.346   4.032   5.085
   50CHL1   H14 5939   0.361   3.922   5.100
   50CHL1   C15 5940   0.459   4.076   4.990
   50CHL1  H15A 5941   0.474   4.186   4.999
   50CHL1  H15B 5942   0.554   4.024   5.014
   50CHL1   C16 5943   0.406   4.041   4.851
   50CHL1  H16A 5944   0.410   4.133   4.788
   50CHL1  H16B 5945   0.466   3.961   4.803
   50CHL1   C17 5946   0.257   3.994   4.867
   50CHL1   H17 5947   0.260   3.883   4.873
   50CHL1   C13 5948   0.215   4.045   5.007
   50CHL1   C18 5949   0.179   4.195   4.993
   50CHL1  H18A 5950   0.088   4.206   4.931
   50CHL1  H18B 5951   0.156   4.241   5.091
   50CHL1  H18C 5952   0.260   4.253   4.946
   50CHL1   C12 5953   0.109   3.965   5.084
   50CHL1  H12A 5954   0.009   3.972   5.036
   50CHL1  H12B 5955   0.138   3.858   5.087
   50CHL1   C11 5956   0.096   4.017   5.229
   50CHL1  H11A 5957   0.046   4.116   5.225
   50CHL1  H11B 5958   0.027   3.948   5.283
   50CHL1    C9 5959   0.232   4.026   5.304
   50CHL1    H9 5960   0.266   3.919   5.315
   50CHL1   C10 5961   0.224   4.081   5.449
   50CHL1   C19 5962   0.175   4.227   5.447
   50CHL1  H19A 5963   0.249   4.298   5.405
   50CHL1  H19B 5964   0.085   4.234   5.384
   50CHL1  H19C 5965   0.148   4.261   5.549
   50CHL1    C1 5966   0.125   3.991   5.528
   50CHL1   H1A 5967   0.021   4.014   5.497
   50CHL1   H1B 5968   0.146   3.885   5.501
   50CHL1    C2 5969   0.135   4.002   5.680
   50CHL1   H2A 5970   0.077   3.920   5.727
   50CHL1   H2B 5971   0.089   4.099   5.712
   50CHL1   C20 5972   0.171   4.032   4.745
   50CHL1   H20 5973   0.159   4.143   4.744
   50CHL1   C21 5974   0.030   3.969   4.754
   50CHL1  H21A 5975  -0.025   4.007   4.842
   50CHL1  H21B 5976   0.036   3.858   4.758
   50CHL1  H21C 5977  -0.030   3.997   4.665
   50CHL1   C22 5978   0.236   3.996   4.610
   50CHL1  H22A 5979   0.344   4.023   4.609
   50CHL1  H22B 5980   0.229   3.887   4.592
   50CHL1   C23 5981   0.172   4.074   4.494
   50CHL1  H23A 5982   0.068   4.039   4.479
   50CHL1  H23B 5983   0.168   4.182   4.522
   50CHL1   C24 5984   0.251   4.062   4.364
   50CHL1  H24A 5985   0.358   4.088   4.383
   50CHL1  H24B 5986   0.248   3.957   4.329
   50CHL1   C25 5987   0.199   4.156   4.253
   50CHL1   H25 5988   0.218   4.261   4.286
   50CHL1   C26 5989   0.277   4.135   4.122
   50CHL1  H26A 5990   0.239   4.203   4.043
   50CHL1  H26B 5991   0.385   4.156   4.137
   50CHL1  H26C 5992   0.267   4.031   4.086
   50CHL1   C27 5993   0.047   4.141   4.231
   50CHL1  H27A 5994   0.018   4.035   4.218
   50CHL1  H27B 5995  -0.009   4.179   4.319
   50CHL1  H27C 5996   0.015   4.197   4.141
   51CHL1    C3 5997   3.805   5.225   5.765
   51CHL1    H3 5998   3.914   5.206   5.759
   51CHL1    O3 5999   3.776   5.271   5.896
   51CHL1   H3' 6000   3.805   5.362   5.891
   51CHL1    C4 6001   3.762   5.334   5.666
   51CHL1   H4A 6002   3.651   5.341   5.665
   51CHL1   H4B 6003   3.801   5.433   5.699
   51CHL1    C5 6004   3.814   5.295   5.530
   51CHL1    C6 6005   3.905   5.372   5.471
   51CHL1    H6 6006   3.938   5.462   5.524
   51CHL1    C7 6007   3.966   5.346   5.335
   51CHL1   H7A 6008   3.960   5.436   5.272
   51CHL1   H7B 6009   4.073   5.320   5.347
   51CHL1    C8 6010   3.894   5.230   5.261
   51CHL1    H8 6011   3.796   5.270   5.226
   51CHL1   C14 6012   3.973   5.186   5.138
   51CHL1   H14 6013   4.074   5.154   5.175
   51CHL1   C15 6014   4.001   5.291   5.029
   51CHL1  H15A 6015   3.910   5.353   5.013
   51CHL1  H15B 6016   4.084   5.359   5.057
   51CHL1   C16 6017   4.033   5.209   4.904
   51CHL1  H16A 6018   3.971   5.246   4.819
   51CHL1  H16B 6019   4.140   5.219   4.875
   51CHL1   C17 6020   4.000   5.059   4.936
   51CHL1   H17 6021   4.097   5.011   4.964
   51CHL1   C13 6022   3.914   5.066   5.065
   51CHL1   C18 6023   3.769   5.098   5.021
   51CHL1  H18A 6024   3.766   5.182   4.949
   51CHL1  H18B 6025   3.722   5.009   4.973
   51CHL1  H18C 6026   3.706   5.125   5.107
   51CHL1   C12 6027   3.923   4.948   5.165
   51CHL1  H12A 6028   3.881   4.855   5.122
   51CHL1  H12B 6029   4.031   4.930   5.185
   51CHL1   C11 6030   3.852   4.975   5.300
   51CHL1  H11A 6031   3.744   4.956   5.290
   51CHL1  H11B 6032   3.889   4.900   5.373
   51CHL1    C9 6033   3.871   5.116   5.362
   51CHL1    H9 6034   3.971   5.106   5.411
   51CHL1   C10 6035   3.770   5.157   5.475
   51CHL1   C19 6036   3.625   5.169   5.424
   51CHL1  H19A 6037   3.557   5.207   5.504
   51CHL1  H19B 6038   3.616   5.237   5.337
   51CHL1  H19C 6039   3.586   5.069   5.396
   51CHL1    C1 6040   3.769   5.050   5.588
   51CHL1   H1A 6041   3.704   4.965   5.558
   51CHL1   H1B 6042   3.872   5.011   5.594
   51CHL1    C2 6043   3.730   5.097   5.730
   51CHL1   H2A 6044   3.753   5.019   5.805
   51CHL1   H2B 6045   3.620   5.114   5.735
   51CHL1   C20 6046   3.943   4.985   4.814
   51CHL1   H20 6047   3.847   5.034   4.785
   51CHL1   C21 6048   3.914   4.837   4.847
   51CHL1  H21A 6049   3.872   4.784   4.759
   51CHL1  H21B 6050   3.838   4.827   4.927
   51CHL1  H21C 6051   4.007   4.785   4.876
   51CHL1   C22 6052   4.032   4.990   4.687
   51CHL1  H22A 6053   4.079   5.090   4.674
   51CHL1  H22B 6054   4.114   4.916   4.697
   51CHL1   C23 6055   3.951   4.959   4.561
   51CHL1  H23A 6056   3.884   4.871   4.578
   51CHL1  H23B 6057   3.884   5.046   4.541
   51CHL1   C24 6058   4.035   4.926   4.438
   51CHL1  H24A 6059   4.111   5.006   4.420
   51CHL1  H24B 6060   4.090   4.831   4.455
   51CHL1   C25 6061   3.946   4.911   4.314
   51CHL1   H25 6062   3.858   4.848   4.341
   51CHL1   C26 6063   3.895   5.049   4.270
   51CHL1  H26A 6064   3.894   5.057   4.160
   51CHL1  H26B 6065   3.792   5.068   4.309
   51CHL1  H26C 6066   3.960   5.129   4.311
   51CHL1   C27 6067   4.019   4.840   4.200
   51CHL1  H27A 6068   4.035   4.733   4.225
   51CHL1  H27B 6069   3.959   4.845   4.106
   51CHL1  H27C 6070   4.118   4.886   4.181
   52CHL1    C3 6071   1.075   0.238   5.726
   52CHL1    H3 6072   1.072   0.348   5.714
   52CHL1    O3 6073   1.101   0.205   5.862
   52CHL1   H3' 6074   1.197   0.212   5.871
   52CHL1    C4 6075   0.940   0.175   5.687
   52CHL1   H4A 6076   0.947   0.068   5.712
   52CHL1   H4B 6077   0.862   0.218   5.754
   52CHL1    C5 6078   0.903   0.192   5.540
   52CHL1    C6 6079   0.783   0.244   5.508
   52CHL1    H6 6080   0.712   0.271   5.588
   52CHL1    C7 6081   0.738   0.271   5.368
   52CHL1   H7A 6082   0.635   0.234   5.353
   52CHL1   H7B 6083   0.737   0.381   5.352
   52CHL1    C8 6084   0.829   0.207   5.260
   52CHL1    H8 6085   0.804   0.099   5.253
   52CHL1   C14 6086   0.799   0.274   5.126
   52CHL1   H14 6087   0.826   0.382   5.140
   52CHL1   C15 6088   0.653   0.276   5.079
   52CHL1  H15A 6089   0.612   0.173   5.089
   52CHL1  H15B 6090   0.590   0.346   5.137
   52CHL1   C16 6091   0.663   0.315   4.931
   52CHL1  H16A 6092   0.605   0.241   4.873
   52CHL1  H16B 6093   0.622   0.416   4.913
   52CHL1   C17 6094   0.815   0.310   4.893
   52CHL1   H17 6095   0.853   0.414   4.903
   52CHL1   C13 6096   0.882   0.227   5.007
   52CHL1   C18 6097   0.858   0.077   4.978
   52CHL1  H18A 6098   0.927   0.043   4.899
   52CHL1  H18B 6099   0.875   0.015   5.068
   52CHL1  H18C 6100   0.754   0.060   4.943
   52CHL1   C12 6101   1.030   0.251   5.042
   52CHL1  H12A 6102   1.097   0.210   4.964
   52CHL1  H12B 6103   1.047   0.360   5.050
   52CHL1   C11 6104   1.069   0.183   5.176
   52CHL1  H11A 6105   1.066   0.073   5.160
   52CHL1  H11B 6106   1.174   0.210   5.201
   52CHL1    C9 6107   0.977   0.222   5.296
   52CHL1    H9 6108   0.994   0.332   5.306
   52CHL1   C10 6109   1.014   0.162   5.435
   52CHL1   C19 6110   1.028   0.009   5.417
   52CHL1  H19A 6111   1.106  -0.016   5.342
   52CHL1  H19B 6112   1.060  -0.039   5.511
   52CHL1  H19C 6113   0.931  -0.036   5.385
   52CHL1    C1 6114   1.151   0.217   5.487
   52CHL1   H1A 6115   1.232   0.177   5.422
   52CHL1   H1B 6116   1.151   0.327   5.476
   52CHL1    C2 6117   1.185   0.184   5.634
   52CHL1   H2A 6118   1.283   0.228   5.661
   52CHL1   H2B 6119   1.193   0.074   5.649
   52CHL1   C20 6120   0.835   0.266   4.747
   52CHL1   H20 6121   0.812   0.158   4.739
   52CHL1   C21 6122   0.981   0.289   4.704
   52CHL1  H21A 6123   0.988   0.382   4.644
   52CHL1  H21B 6124   1.016   0.205   4.640
   52CHL1  H21C 6125   1.051   0.299   4.789
   52CHL1   C22 6126   0.740   0.339   4.647
   52CHL1  H22A 6127   0.634   0.319   4.672
   52CHL1  H22B 6128   0.756   0.449   4.658
   52CHL1   C23 6129   0.761   0.302   4.499
   52CHL1  H23A 6130   0.765   0.396   4.439
   52CHL1  H23B 6131   0.858   0.249   4.485
   52CHL1   C24 6132   0.649   0.214   4.442
   52CHL1  H24A 6133   0.612   0.143   4.520
   52CHL1  H24B 6134   0.566   0.279   4.411
   52CHL1   C25 6135   0.692   0.134   4.317
   52CHL1   H25 6136   0.785   0.079   4.343
   52CHL1   C26 6137   0.584   0.031   4.278
   52CHL1  H26A 6138   0.566  -0.039   4.362
   52CHL1  H26B 6139   0.489   0.082   4.253
   52CHL1  H26C 6140   0.618  -0.027   4.190
   52CHL1   C27 6141   0.720   0.226   4.198
   52CHL1  H27A 6142   0.626   0.274   4.163
   52CHL1  H27B 6143   0.792   0.306   4.225
   52CHL1  H27C 6144   0.763   0.167   4.114
   53CHL1    C3 6145   5.011   4.611   5.791
   53CHL1    H3 6146   4.997   4.714   5.749
   53CHL1    O3 6147   5.005   4.620   5.933
   53CHL1   H3' 6148   5.098   4.623   5.960
   53CHL1    C4 6149   4.899   4.518   5.741
   53CHL1   H4A 6150   4.917   4.416   5.781
   53CHL1   H4B 6151   4.803   4.553   5.784
   53CHL1    C5 6152   4.897   4.516   5.589
   53CHL1    C6 6153   4.787   4.551   5.521
   53CHL1    H6 6154   4.696   4.579   5.575
   53CHL1    C7 6155   4.779   4.548   5.371
   53CHL1   H7A 6156   4.684   4.501   5.338
   53CHL1   H7B 6157   4.781   4.653   5.334
   53CHL1    C8 6158   4.897   4.475   5.302
   53CHL1    H8 6159   4.882   4.365   5.314
   53CHL1   C14 6160   4.899   4.509   5.153
   53CHL1   H14 6161   4.912   4.620   5.147
   53CHL1   C15 6162   4.771   4.478   5.074
   53CHL1  H15A 6163   4.734   4.378   5.103
   53CHL1  H15B 6164   4.692   4.553   5.093
   53CHL1   C16 6165   4.817   4.478   4.928
   53CHL1  H16A 6166   4.788   4.380   4.882
   53CHL1  H16B 6167   4.770   4.559   4.870
   53CHL1   C17 6168   4.973   4.491   4.928
   53CHL1   H17 6169   4.995   4.600   4.920
   53CHL1   C13 6170   5.016   4.450   5.072
   53CHL1   C18 6171   5.017   4.296   5.080
   53CHL1  H18A 6172   5.026   4.260   5.184
   53CHL1  H18B 6173   4.925   4.254   5.038
   53CHL1  H18C 6174   5.102   4.255   5.022
   53CHL1   C12 6175   5.144   4.512   5.133
   53CHL1  H12A 6176   5.234   4.472   5.083
   53CHL1  H12B 6177   5.142   4.622   5.119
   53CHL1   C11 6178   5.154   4.479   5.284
   53CHL1  H11A 6179   5.172   4.371   5.290
   53CHL1  H11B 6180   5.244   4.530   5.325
   53CHL1    C9 6181   5.028   4.517   5.368
   53CHL1    H9 6182   5.027   4.629   5.366
   53CHL1   C10 6183   5.031   4.478   5.520
   53CHL1   C19 6184   5.041   4.324   5.538
   53CHL1  H19A 6185   5.083   4.297   5.637
   53CHL1  H19B 6186   4.942   4.273   5.528
   53CHL1  H19C 6187   5.105   4.279   5.461
   53CHL1    C1 6188   5.152   4.548   5.589
   53CHL1   H1A 6189   5.245   4.494   5.558
   53CHL1   H1B 6190   5.160   4.652   5.549
   53CHL1    C2 6191   5.147   4.558   5.743
   53CHL1   H2A 6192   5.228   4.625   5.778
   53CHL1   H2B 6193   5.163   4.456   5.786
   53CHL1   C20 6194   5.033   4.424   4.802
   53CHL1   H20 6195   5.012   4.315   4.805
   53CHL1   C21 6196   5.186   4.444   4.797
   53CHL1  H21A 6197   5.231   4.380   4.718
   53CHL1  H21B 6198   5.233   4.414   4.892
   53CHL1  H21C 6199   5.210   4.550   4.776
   53CHL1   C22 6200   4.969   4.482   4.671
   53CHL1  H22A 6201   4.860   4.464   4.670
   53CHL1  H22B 6202   4.984   4.592   4.675
   53CHL1   C23 6203   5.025   4.433   4.535
   53CHL1  H23A 6204   5.134   4.413   4.542
   53CHL1  H23B 6205   4.975   4.338   4.507
   53CHL1   C24 6206   5.004   4.540   4.426
   53CHL1  H24A 6207   4.894   4.554   4.414
   53CHL1  H24B 6208   5.043   4.636   4.463
   53CHL1   C25 6209   5.063   4.510   4.285
   53CHL1   H25 6210   5.055   4.605   4.226
   53CHL1   C26 6211   5.210   4.466   4.278
   53CHL1  H26A 6212   5.230   4.420   4.179
   53CHL1  H26B 6213   5.281   4.550   4.288
   53CHL1  H26C 6214   5.233   4.391   4.357
   53CHL1   C27 6215   4.978   4.406   4.214
   53CHL1  H27A 6216   4.871   4.435   4.219
   53CHL1  H27B 6217   5.008   4.396   4.108
   53CHL1  H27C 6218   4.992   4.308   4.264
   54CHL1    C3 6219   0.327   0.090   5.717
   54CHL1    H3 6220   0.428   0.049   5.691
   54CHL1    O3 6221   0.330   0.136   5.851
   54CHL1   H3' 6222   0.295   0.065   5.907
   54CHL1    C4 6223   0.301   0.210   5.627
   54CHL1   H4A 6224   0.211   0.264   5.662
   54CHL1   H4B 6225   0.386   0.280   5.640
   54CHL1    C5 6226   0.284   0.166   5.483
   54CHL1    C6 6227   0.363   0.217   5.389
   54CHL1    H6 6228   0.438   0.291   5.418
   54CHL1    C7 6229   0.347   0.191   5.243
   54CHL1   H7A 6230   0.355   0.285   5.185
   54CHL1   H7B 6231   0.429   0.124   5.209
   54CHL1    C8 6232   0.212   0.124   5.210
   54CHL1    H8 6233   0.131   0.201   5.216
   54CHL1   C14 6234   0.220   0.071   5.069
   54CHL1   H14 6235   0.298  -0.010   5.071
   54CHL1   C15 6236   0.269   0.169   4.962
   54CHL1  H15A 6237   0.220   0.267   4.980
   54CHL1  H15B 6238   0.379   0.182   4.964
   54CHL1   C16 6239   0.223   0.105   4.831
   54CHL1  H16A 6240   0.153   0.175   4.779
   54CHL1  H16B 6241   0.309   0.082   4.765
   54CHL1   C17 6242   0.146  -0.024   4.870
   54CHL1   H17 6243   0.222  -0.105   4.881
   54CHL1   C13 6244   0.095   0.002   5.014
   54CHL1   C18 6245  -0.023   0.102   5.004
   54CHL1  H18A 6246   0.009   0.203   4.970
   54CHL1  H18B 6247  -0.100   0.067   4.933
   54CHL1  H18C 6248  -0.072   0.116   5.102
   54CHL1   C12 6249   0.070  -0.118   5.109
   54CHL1  H12A 6250  -0.022  -0.173   5.082
   54CHL1  H12B 6251   0.156  -0.187   5.102
   54CHL1   C11 6252   0.059  -0.074   5.258
   54CHL1  H11A 6253  -0.034  -0.016   5.269
   54CHL1  H11B 6254   0.051  -0.164   5.323
   54CHL1    C9 6255   0.180   0.011   5.307
   54CHL1    H9 6256   0.267  -0.057   5.302
   54CHL1   C10 6257   0.178   0.058   5.456
   54CHL1   C19 6258   0.040   0.118   5.489
   54CHL1  H19A 6259   0.036   0.165   5.589
   54CHL1  H19B 6260   0.012   0.196   5.415
   54CHL1  H19C 6261  -0.038   0.038   5.489
   54CHL1    C1 6262   0.209  -0.061   5.552
   54CHL1   H1A 6263   0.131  -0.139   5.541
   54CHL1   H1B 6264   0.306  -0.108   5.521
   54CHL1    C2 6265   0.221  -0.019   5.700
   54CHL1   H2A 6266   0.243  -0.107   5.764
   54CHL1   H2B 6267   0.123   0.021   5.733
   54CHL1   C20 6268   0.052  -0.069   4.758
   54CHL1   H20 6269  -0.025   0.009   4.738
   54CHL1   C21 6270  -0.021  -0.199   4.798
   54CHL1  H21A 6271  -0.078  -0.238   4.711
   54CHL1  H21B 6272  -0.092  -0.182   4.880
   54CHL1  H21C 6273   0.053  -0.277   4.828
   54CHL1   C22 6274   0.128  -0.094   4.624
   54CHL1  H22A 6275   0.227  -0.140   4.644
   54CHL1  H22B 6276   0.067  -0.169   4.571
   54CHL1   C23 6277   0.142   0.027   4.530
   54CHL1  H23A 6278   0.047   0.083   4.529
   54CHL1  H23B 6279   0.221   0.095   4.567
   54CHL1   C24 6280   0.179  -0.012   4.385
   54CHL1  H24A 6281   0.200   0.081   4.327
   54CHL1  H24B 6282   0.273  -0.071   4.387
   54CHL1   C25 6283   0.071  -0.092   4.309
   54CHL1   H25 6284   0.052  -0.185   4.366
   54CHL1   C26 6285  -0.065  -0.020   4.303
   54CHL1  H26A 6286  -0.136  -0.078   4.240
   54CHL1  H26B 6287  -0.109  -0.010   4.404
   54CHL1  H26C 6288  -0.052   0.080   4.259
   54CHL1   C27 6289   0.119  -0.133   4.170
   54CHL1  H27A 6290   0.037  -0.183   4.114
   54CHL1  H27B 6291   0.152  -0.044   4.113
   54CHL1  H27C 6292   0.205  -0.203   4.176
   55CHL1    C3 6293   1.863   2.550   2.239
   55CHL1    H3 6294   1.769   2.501   2.273
   55CHL1    O3 6295   1.856   2.567   2.098
   55CHL1   H3' 6296   1.933   2.620   2.077
   55CHL1    C4 6297   1.877   2.688   2.306
   55CHL1   H4A 6298   1.971   2.736   2.271
   55CHL1   H4B 6299   1.794   2.752   2.270
   55CHL1    C5 6300   1.877   2.672   2.457
   55CHL1    C6 6301   1.781   2.730   2.530
   55CHL1    H6 6302   1.707   2.794   2.482
   55CHL1    C7 6303   1.772   2.718   2.679
   55CHL1   H7A 6304   1.749   2.818   2.724
   55CHL1   H7B 6305   1.689   2.649   2.706
   55CHL1    C8 6306   1.903   2.667   2.743
   55CHL1    H8 6307   1.975   2.751   2.738
   55CHL1   C14 6308   1.879   2.626   2.887
   55CHL1   H14 6309   1.817   2.533   2.884
   55CHL1   C15 6310   1.798   2.723   2.973
   55CHL1  H15A 6311   1.842   2.824   2.958
   55CHL1  H15B 6312   1.691   2.726   2.947
   55CHL1   C16 6313   1.823   2.672   3.115
   55CHL1  H16A 6314   1.834   2.759   3.182
   55CHL1  H16B 6315   1.736   2.612   3.149
   55CHL1   C17 6316   1.949   2.580   3.111
   55CHL1   H17 6317   1.913   2.476   3.121
   55CHL1   C13 6318   2.005   2.591   2.965
   55CHL1   C18 6319   2.109   2.706   2.960
   55CHL1  H18A 6320   2.199   2.681   3.019
   55CHL1  H18B 6321   2.144   2.725   2.857
   55CHL1  H18C 6322   2.066   2.800   2.999
   55CHL1   C12 6323   2.060   2.463   2.898
   55CHL1  H12A 6324   2.155   2.431   2.945
   55CHL1  H12B 6325   1.986   2.381   2.912
   55CHL1   C11 6326   2.082   2.482   2.745
   55CHL1  H11A 6327   2.172   2.546   2.734
   55CHL1  H11B 6328   2.105   2.384   2.699
   55CHL1    C9 6329   1.962   2.547   2.667
   55CHL1    H9 6330   1.881   2.470   2.669
   55CHL1   C10 6331   1.985   2.579   2.516
   55CHL1   C19 6332   2.121   2.653   2.503
   55CHL1  H19A 6333   2.138   2.689   2.400
   55CHL1  H19B 6334   2.125   2.740   2.571
   55CHL1  H19C 6335   2.205   2.585   2.526
   55CHL1    C1 6336   1.986   2.446   2.435
   55CHL1   H1A 6337   2.077   2.387   2.462
   55CHL1   H1B 6338   1.897   2.386   2.464
   55CHL1    C2 6339   1.982   2.462   2.281
   55CHL1   H2A 6340   1.974   2.362   2.233
   55CHL1   H2B 6341   2.077   2.509   2.246
   55CHL1   C20 6342   2.043   2.609   3.230
   55CHL1   H20 6343   2.091   2.709   3.215
   55CHL1   C21 6344   2.154   2.503   3.238
   55CHL1  H21A 6345   2.212   2.499   3.144
   55CHL1  H21B 6346   2.112   2.403   3.259
   55CHL1  H21C 6347   2.224   2.529   3.320
   55CHL1   C22 6348   1.970   2.620   3.367
   55CHL1  H22A 6349   2.047   2.629   3.447
   55CHL1  H22B 6350   1.911   2.714   3.371
   55CHL1   C23 6351   1.878   2.503   3.402
   55CHL1  H23A 6352   1.802   2.489   3.322
   55CHL1  H23B 6353   1.938   2.410   3.408
   55CHL1   C24 6354   1.801   2.526   3.533
   55CHL1  H24A 6355   1.874   2.533   3.617
   55CHL1  H24B 6356   1.748   2.623   3.526
   55CHL1   C25 6357   1.700   2.415   3.564
   55CHL1   H25 6358   1.633   2.404   3.475
   55CHL1   C26 6359   1.772   2.282   3.586
   55CHL1  H26A 6360   1.846   2.291   3.668
   55CHL1  H26B 6361   1.701   2.202   3.612
   55CHL1  H26C 6362   1.825   2.250   3.494
   55CHL1   C27 6363   1.612   2.453   3.684
   55CHL1  H27A 6364   1.660   2.533   3.744
   55CHL1  H27B 6365   1.513   2.490   3.650
   55CHL1  H27C 6366   1.596   2.366   3.750
   56CHL1    C3 6367   2.306   1.886   2.261
   56CHL1    H3 6368   2.414   1.872   2.280
   56CHL1    O3 6369   2.282   1.863   2.122
   56CHL1   H3' 6370   2.285   1.949   2.076
   56CHL1    C4 6371   2.224   1.783   2.339
   56CHL1   H4A 6372   2.118   1.794   2.308
   56CHL1   H4B 6373   2.257   1.683   2.304
   56CHL1    C5 6374   2.234   1.796   2.489
   56CHL1    C6 6375   2.275   1.692   2.564
   56CHL1    H6 6376   2.297   1.596   2.516
   56CHL1    C7 6377   2.285   1.697   2.713
   56CHL1   H7A 6378   2.246   1.605   2.761
   56CHL1   H7B 6379   2.391   1.701   2.740
   56CHL1    C8 6380   2.215   1.819   2.777
   56CHL1    H8 6381   2.106   1.801   2.779
   56CHL1   C14 6382   2.269   1.835   2.919
   56CHL1   H14 6383   2.378   1.854   2.905
   56CHL1   C15 6384   2.263   1.714   3.013
   56CHL1  H15A 6385   2.159   1.675   3.015
   56CHL1  H15B 6386   2.332   1.633   2.985
   56CHL1   C16 6387   2.297   1.775   3.150
   56CHL1  H16A 6388   2.219   1.746   3.224
   56CHL1  H16B 6389   2.396   1.739   3.186
   56CHL1   C17 6390   2.300   1.930   3.129
   56CHL1   H17 6391   2.406   1.955   3.104
   56CHL1   C13 6392   2.218   1.954   2.999
   56CHL1   C18 6393   2.067   1.941   3.030
   56CHL1  H18A 6394   2.046   1.855   3.097
   56CHL1  H18B 6395   2.031   2.033   3.079
   56CHL1  H18C 6396   2.009   1.927   2.937
   56CHL1   C12 6397   2.247   2.081   2.917
   56CHL1  H12A 6398   2.202   2.170   2.964
   56CHL1  H12B 6399   2.357   2.093   2.914
   56CHL1   C11 6400   2.193   2.072   2.772
   56CHL1  H11A 6401   2.082   2.070   2.777
   56CHL1  H11B 6402   2.223   2.163   2.716
   56CHL1    C9 6403   2.244   1.946   2.696
   56CHL1    H9 6404   2.356   1.956   2.695
   56CHL1   C10 6405   2.203   1.936   2.546
   56CHL1   C19 6406   2.050   1.959   2.535
   56CHL1  H19A 6407   2.023   2.061   2.569
   56CHL1  H19B 6408   2.018   1.952   2.429
   56CHL1  H19C 6409   1.994   1.885   2.594
   56CHL1    C1 6410   2.280   2.042   2.460
   56CHL1   H1A 6411   2.247   2.144   2.489
   56CHL1   H1B 6412   2.389   2.035   2.484
   56CHL1    C2 6413   2.266   2.028   2.306
   56CHL1   H2A 6414   2.331   2.103   2.255
   56CHL1   H2B 6415   2.161   2.047   2.276
   56CHL1   C20 6416   2.264   2.010   3.255
   56CHL1   H20 6417   2.154   2.002   3.273
   56CHL1   C21 6418   2.304   2.157   3.234
   56CHL1  H21A 6419   2.410   2.163   3.202
   56CHL1  H21B 6420   2.294   2.214   3.328
   56CHL1  H21C 6421   2.239   2.207   3.159
   56CHL1   C22 6422   2.334   1.961   3.384
   56CHL1  H22A 6423   2.344   1.850   3.389
   56CHL1  H22B 6424   2.436   2.003   3.387
   56CHL1   C23 6425   2.255   2.005   3.508
   56CHL1  H23A 6426   2.202   2.101   3.486
   56CHL1  H23B 6427   2.176   1.929   3.528
   56CHL1   C24 6428   2.341   2.027   3.633
   56CHL1  H24A 6429   2.385   1.930   3.665
   56CHL1  H24B 6430   2.424   2.096   3.609
   56CHL1   C25 6431   2.260   2.086   3.751
   56CHL1   H25 6432   2.215   2.183   3.718
   56CHL1   C26 6433   2.145   1.993   3.790
   56CHL1  H26A 6434   2.110   2.017   3.893
   56CHL1  H26B 6435   2.060   2.003   3.720
   56CHL1  H26C 6436   2.179   1.888   3.788
   56CHL1   C27 6437   2.350   2.115   3.871
   56CHL1  H27A 6438   2.418   2.199   3.848
   56CHL1  H27B 6439   2.289   2.142   3.960
   56CHL1  H27C 6440   2.411   2.026   3.896
   57CHL1    C3 6441   3.406   2.665   2.248
   57CHL1    H3 6442   3.406   2.774   2.221
   57CHL1    O3 6443   3.403   2.588   2.129
   57CHL1   H3' 6444   3.469   2.632   2.072
   57CHL1    C4 6445   3.536   2.631   2.323
   57CHL1   H4A 6446   3.542   2.521   2.333
   57CHL1   H4B 6447   3.621   2.663   2.259
   57CHL1    C5 6448   3.545   2.694   2.461
   57CHL1    C6 6449   3.652   2.767   2.500
   57CHL1    H6 6450   3.737   2.781   2.431
   57CHL1    C7 6451   3.670   2.824   2.638
   57CHL1   H7A 6452   3.772   2.803   2.675
   57CHL1   H7B 6453   3.657   2.935   2.634
   57CHL1    C8 6454   3.567   2.765   2.738
   57CHL1    H8 6455   3.597   2.660   2.757
   57CHL1   C14 6456   3.567   2.838   2.873
   57CHL1   H14 6457   3.541   2.945   2.851
   57CHL1   C15 6458   3.699   2.844   2.952
   57CHL1  H15A 6459   3.748   2.745   2.950
   57CHL1  H15B 6460   3.769   2.919   2.909
   57CHL1   C16 6461   3.655   2.881   3.094
   57CHL1  H16A 6462   3.709   2.820   3.169
   57CHL1  H16B 6463   3.676   2.988   3.112
   57CHL1   C17 6464   3.500   2.859   3.103
   57CHL1   H17 6465   3.455   2.961   3.095
   57CHL1   C13 6466   3.462   2.787   2.971
   57CHL1   C18 6467   3.479   2.634   2.995
   57CHL1  H18A 6468   3.470   2.577   2.901
   57CHL1  H18B 6469   3.578   2.612   3.039
   57CHL1  H18C 6470   3.400   2.596   3.063
   57CHL1   C12 6471   3.327   2.824   2.907
   57CHL1  H12A 6472   3.238   2.798   2.966
   57CHL1  H12B 6473   3.326   2.934   2.892
   57CHL1   C11 6474   3.310   2.754   2.771
   57CHL1  H11A 6475   3.293   2.648   2.792
   57CHL1  H11B 6476   3.217   2.795   2.724
   57CHL1    C9 6477   3.428   2.770   2.673
   57CHL1    H9 6478   3.418   2.875   2.635
   57CHL1   C10 6479   3.420   2.676   2.549
   57CHL1   C19 6480   3.414   2.527   2.594
   57CHL1  H19A 6481   3.500   2.502   2.660
   57CHL1  H19B 6482   3.320   2.506   2.648
   57CHL1  H19C 6483   3.418   2.458   2.508
   57CHL1    C1 6484   3.292   2.710   2.468
   57CHL1   H1A 6485   3.201   2.686   2.528
   57CHL1   H1B 6486   3.291   2.819   2.447
   57CHL1    C2 6487   3.282   2.636   2.333
   57CHL1   H2A 6488   3.190   2.667   2.279
   57CHL1   H2B 6489   3.275   2.526   2.350
   57CHL1   C20 6490   3.451   2.800   3.238
   57CHL1   H20 6491   3.485   2.695   3.250
   57CHL1   C21 6492   3.299   2.804   3.240
   57CHL1  H21A 6493   3.257   2.751   3.328
   57CHL1  H21B 6494   3.268   2.910   3.243
   57CHL1  H21C 6495   3.254   2.755   3.152
   57CHL1   C22 6496   3.501   2.880   3.362
   57CHL1  H22A 6497   3.605   2.850   3.386
   57CHL1  H22B 6498   3.501   2.986   3.330
   57CHL1   C23 6499   3.415   2.880   3.491
   57CHL1  H23A 6500   3.326   2.945   3.471
   57CHL1  H23B 6501   3.376   2.778   3.513
   57CHL1   C24 6502   3.490   2.933   3.616
   57CHL1  H24A 6503   3.547   2.847   3.658
   57CHL1  H24B 6504   3.564   3.010   3.587
   57CHL1   C25 6505   3.402   2.991   3.729
   57CHL1   H25 6506   3.329   2.912   3.758
   57CHL1   C26 6507   3.488   3.024   3.853
   57CHL1  H26A 6508   3.565   2.946   3.869
   57CHL1  H26B 6509   3.538   3.122   3.838
   57CHL1  H26C 6510   3.424   3.031   3.944
   57CHL1   C27 6511   3.325   3.118   3.689
   57CHL1  H27A 6512   3.265   3.157   3.773
   57CHL1  H27B 6513   3.396   3.199   3.661
   57CHL1  H27C 6514   3.257   3.100   3.603
   58CHL1    C3 6515   3.597   1.312   2.240
   58CHL1    H3 6516   3.496   1.340   2.279
   58CHL1    O3 6517   3.592   1.298   2.099
   58CHL1   H3' 6518   3.500   1.280   2.074
   58CHL1    C4 6519   3.697   1.422   2.274
   58CHL1   H4A 6520   3.796   1.393   2.234
   58CHL1   H4B 6521   3.666   1.515   2.220
   58CHL1    C5 6522   3.704   1.441   2.423
   58CHL1    C6 6523   3.672   1.560   2.477
   58CHL1    H6 6524   3.646   1.644   2.411
   58CHL1    C7 6525   3.674   1.587   2.624
   58CHL1   H7A 6526   3.727   1.683   2.643
   58CHL1   H7B 6527   3.570   1.598   2.659
   58CHL1    C8 6528   3.744   1.475   2.706
   58CHL1    H8 6529   3.854   1.489   2.696
   58CHL1   C14 6530   3.702   1.488   2.851
   58CHL1   H14 6531   3.592   1.466   2.854
   58CHL1   C15 6532   3.715   1.629   2.909
   58CHL1  H15A 6533   3.804   1.674   2.862
   58CHL1  H15B 6534   3.625   1.691   2.886
   58CHL1   C16 6535   3.733   1.608   3.059
   58CHL1  H16A 6536   3.837   1.636   3.087
   58CHL1  H16B 6537   3.665   1.671   3.118
   58CHL1   C17 6538   3.714   1.455   3.084
   58CHL1   H17 6539   3.604   1.436   3.087
   58CHL1   C13 6540   3.766   1.392   2.951
   58CHL1   C18 6541   3.921   1.403   2.949
   58CHL1  H18A 6542   3.964   1.341   3.031
   58CHL1  H18B 6543   3.962   1.365   2.854
   58CHL1  H18C 6544   3.956   1.507   2.962
   58CHL1   C12 6545   3.720   1.251   2.906
   58CHL1  H12A 6546   3.769   1.173   2.968
   58CHL1  H12B 6547   3.611   1.243   2.920
   58CHL1   C11 6548   3.754   1.224   2.756
   58CHL1  H11A 6549   3.864   1.212   2.747
   58CHL1  H11B 6550   3.707   1.128   2.727
   58CHL1    C9 6551   3.707   1.336   2.657
   58CHL1    H9 6552   3.596   1.333   2.661
   58CHL1   C10 6553   3.738   1.314   2.506
   58CHL1   C19 6554   3.890   1.290   2.485
   58CHL1  H19A 6555   3.949   1.379   2.515
   58CHL1  H19B 6556   3.926   1.204   2.545
   58CHL1  H19C 6557   3.912   1.267   2.379
   58CHL1    C1 6558   3.656   1.192   2.454
   58CHL1   H1A 6559   3.700   1.098   2.495
   58CHL1   H1B 6560   3.553   1.200   2.494
   58CHL1    C2 6561   3.644   1.180   2.301
   58CHL1   H2A 6562   3.572   1.099   2.275
   58CHL1   H2B 6563   3.742   1.155   2.258
   58CHL1   C20 6564   3.770   1.417   3.222
   58CHL1   H20 6565   3.878   1.446   3.226
   58CHL1   C21 6566   3.761   1.266   3.245
   58CHL1  H21A 6567   3.818   1.212   3.168
   58CHL1  H21B 6568   3.655   1.232   3.242
   58CHL1  H21C 6569   3.804   1.238   3.344
   58CHL1   C22 6570   3.700   1.493   3.340
   58CHL1  H22A 6571   3.694   1.602   3.318
   58CHL1  H22B 6572   3.596   1.456   3.352
   58CHL1   C23 6573   3.774   1.482   3.475
   58CHL1  H23A 6574   3.765   1.378   3.514
   58CHL1  H23B 6575   3.881   1.500   3.452
   58CHL1   C24 6576   3.728   1.583   3.582
   58CHL1  H24A 6577   3.723   1.684   3.536
   58CHL1  H24B 6578   3.626   1.557   3.617
   58CHL1   C25 6579   3.820   1.597   3.707
   58CHL1   H25 6580   3.904   1.664   3.677
   58CHL1   C26 6581   3.746   1.666   3.821
   58CHL1  H26A 6582   3.668   1.600   3.864
   58CHL1  H26B 6583   3.816   1.695   3.902
   58CHL1  H26C 6584   3.696   1.758   3.783
   58CHL1   C27 6585   3.880   1.464   3.757
   58CHL1  H27A 6586   3.953   1.421   3.685
   58CHL1  H27B 6587   3.934   1.480   3.853
   58CHL1  H27C 6588   3.800   1.389   3.773
   59CHL1    C3 6589   1.781   4.121   2.224
   59CHL1    H3 6590   1.864   4.066   2.273
   59CHL1    O3 6591   1.815   4.143   2.087
   59CHL1   H3' 6592   1.878   4.073   2.062
   59CHL1    C4 6593   1.650   4.041   2.232
   59CHL1   H4A 6594   1.571   4.097   2.178
   59CHL1   H4B 6595   1.665   3.945   2.177
   59CHL1    C5 6596   1.603   4.018   2.374
   59CHL1    C6 6597   1.572   3.895   2.419
   59CHL1    H6 6598   1.578   3.810   2.349
   59CHL1    C7 6599   1.524   3.865   2.558
   59CHL1   H7A 6600   1.426   3.813   2.554
   59CHL1   H7B 6601   1.594   3.794   2.604
   59CHL1    C8 6602   1.507   3.988   2.650
   59CHL1    H8 6603   1.402   4.022   2.640
   59CHL1   C14 6604   1.537   3.953   2.796
   59CHL1   H14 6605   1.647   3.939   2.801
   59CHL1   C15 6606   1.480   3.823   2.858
   59CHL1  H15A 6607   1.372   3.813   2.832
   59CHL1  H15B 6608   1.535   3.734   2.822
   59CHL1   C16 6609   1.498   3.845   3.009
   59CHL1  H16A 6610   1.400   3.834   3.059
   59CHL1  H16B 6611   1.569   3.772   3.053
   59CHL1   C17 6612   1.552   3.991   3.027
   59CHL1   H17 6613   1.663   3.984   3.023
   59CHL1   C13 6614   1.509   4.064   2.898
   59CHL1   C18 6615   1.357   4.094   2.904
   59CHL1  H18A 6616   1.320   4.128   2.805
   59CHL1  H18B 6617   1.299   4.004   2.933
   59CHL1  H18C 6618   1.337   4.174   2.978
   59CHL1   C12 6619   1.593   4.187   2.857
   59CHL1  H12A 6620   1.566   4.276   2.918
   59CHL1  H12B 6621   1.701   4.165   2.874
   59CHL1   C11 6622   1.574   4.224   2.709
   59CHL1  H11A 6623   1.468   4.257   2.695
   59CHL1  H11B 6624   1.639   4.310   2.686
   59CHL1    C9 6625   1.599   4.105   2.614
   59CHL1    H9 6626   1.703   4.070   2.635
   59CHL1   C10 6627   1.600   4.144   2.464
   59CHL1   C19 6628   1.470   4.220   2.430
   59CHL1  H19A 6629   1.462   4.315   2.485
   59CHL1  H19B 6630   1.463   4.243   2.322
   59CHL1  H19C 6631   1.381   4.158   2.455
   59CHL1    C1 6632   1.723   4.237   2.439
   59CHL1   H1A 6633   1.702   4.337   2.483
   59CHL1   H1B 6634   1.811   4.195   2.493
   59CHL1    C2 6635   1.762   4.257   2.292
   59CHL1   H2A 6636   1.855   4.318   2.285
   59CHL1   H2B 6637   1.681   4.313   2.239
   59CHL1   C20 6638   1.517   4.051   3.163
   59CHL1   H20 6639   1.406   4.046   3.176
   59CHL1   C21 6640   1.558   4.199   3.174
   59CHL1  H21A 6641   1.494   4.262   3.109
   59CHL1  H21B 6642   1.664   4.213   3.146
   59CHL1  H21C 6643   1.544   4.236   3.278
   59CHL1   C22 6644   1.580   3.973   3.281
   59CHL1  H22A 6645   1.670   3.916   3.248
   59CHL1  H22B 6646   1.616   4.047   3.356
   59CHL1   C23 6647   1.481   3.882   3.355
   59CHL1  H23A 6648   1.390   3.941   3.379
   59CHL1  H23B 6649   1.449   3.798   3.288
   59CHL1   C24 6650   1.538   3.824   3.485
   59CHL1  H24A 6651   1.609   3.743   3.460
   59CHL1  H24B 6652   1.595   3.903   3.538
   59CHL1   C25 6653   1.433   3.770   3.584
   59CHL1   H25 6654   1.371   3.852   3.622
   59CHL1   C26 6655   1.325   3.678   3.525
   59CHL1  H26A 6656   1.366   3.595   3.465
   59CHL1  H26B 6657   1.263   3.635   3.606
   59CHL1  H26C 6658   1.259   3.738   3.460
   59CHL1   C27 6659   1.507   3.715   3.706
   59CHL1  H27A 6660   1.591   3.649   3.675
   59CHL1  H27B 6661   1.552   3.799   3.764
   59CHL1  H27C 6662   1.439   3.659   3.773
   60CHL1    C3 6663   2.527   4.316   2.270
   60CHL1    H3 6664   2.589   4.223   2.276
   60CHL1    O3 6665   2.514   4.352   2.135
   60CHL1   H3' 6666   2.460   4.432   2.135
   60CHL1    C4 6667   2.387   4.292   2.325
   60CHL1   H4A 6668   2.324   4.381   2.308
   60CHL1   H4B 6669   2.339   4.209   2.268
   60CHL1    C5 6670   2.398   4.262   2.473
   60CHL1    C6 6671   2.359   4.144   2.522
   60CHL1    H6 6672   2.321   4.069   2.452
   60CHL1    C7 6673   2.363   4.108   2.667
   60CHL1   H7A 6674   2.273   4.049   2.695
   60CHL1   H7B 6675   2.452   4.044   2.683
   60CHL1    C8 6676   2.376   4.233   2.756
   60CHL1    H8 6677   2.281   4.290   2.749
   60CHL1   C14 6678   2.401   4.195   2.902
   60CHL1   H14 6679   2.498   4.139   2.902
   60CHL1   C15 6680   2.301   4.101   2.971
   60CHL1  H15A 6681   2.198   4.132   2.945
   60CHL1  H15B 6682   2.315   3.995   2.941
   60CHL1   C16 6683   2.326   4.123   3.122
   60CHL1  H16A 6684   2.230   4.149   3.170
   60CHL1  H16B 6685   2.368   4.032   3.170
   60CHL1   C17 6686   2.427   4.242   3.134
   60CHL1   H17 6687   2.529   4.197   3.139
   60CHL1   C13 6688   2.420   4.313   2.997
   60CHL1   C18 6689   2.295   4.405   2.996
   60CHL1  H18A 6690   2.275   4.445   2.894
   60CHL1  H18B 6691   2.204   4.351   3.029
   60CHL1  H18C 6692   2.310   4.492   3.062
   60CHL1   C12 6693   2.546   4.385   2.948
   60CHL1  H12A 6694   2.575   4.472   3.011
   60CHL1  H12B 6695   2.628   4.312   2.951
   60CHL1   C11 6696   2.532   4.431   2.802
   60CHL1  H11A 6697   2.455   4.510   2.802
   60CHL1  H11B 6698   2.628   4.476   2.769
   60CHL1    C9 6699   2.490   4.320   2.703
   60CHL1    H9 6700   2.578   4.251   2.698
   60CHL1   C10 6701   2.466   4.370   2.558
   60CHL1   C19 6702   2.377   4.497   2.557
   60CHL1  H19A 6703   2.281   4.477   2.608
   60CHL1  H19B 6704   2.428   4.581   2.609
   60CHL1  H19C 6705   2.357   4.533   2.455
   60CHL1    C1 6706   2.604   4.399   2.493
   60CHL1   H1A 6707   2.653   4.484   2.545
   60CHL1   H1B 6708   2.669   4.310   2.505
   60CHL1    C2 6709   2.596   4.430   2.343
   60CHL1   H2A 6710   2.696   4.447   2.299
   60CHL1   H2B 6711   2.539   4.524   2.328
   60CHL1   C20 6712   2.407   4.322   3.265
   60CHL1   H20 6713   2.302   4.360   3.266
   60CHL1   C21 6714   2.499   4.445   3.272
   60CHL1  H21A 6715   2.605   4.415   3.275
   60CHL1  H21B 6716   2.476   4.506   3.362
   60CHL1  H21C 6717   2.483   4.513   3.186
   60CHL1   C22 6718   2.422   4.230   3.391
   60CHL1  H22A 6719   2.324   4.184   3.413
   60CHL1  H22B 6720   2.493   4.147   3.366
   60CHL1   C23 6721   2.476   4.299   3.518
   60CHL1  H23A 6722   2.582   4.329   3.498
   60CHL1  H23B 6723   2.418   4.391   3.539
   60CHL1   C24 6724   2.476   4.212   3.646
   60CHL1  H24A 6725   2.377   4.222   3.695
   60CHL1  H24B 6726   2.488   4.105   3.619
   60CHL1   C25 6727   2.588   4.252   3.745
   60CHL1   H25 6728   2.686   4.233   3.696
   60CHL1   C26 6729   2.584   4.401   3.775
   60CHL1  H26A 6730   2.662   4.427   3.849
   60CHL1  H26B 6731   2.604   4.459   3.683
   60CHL1  H26C 6732   2.485   4.430   3.816
   60CHL1   C27 6733   2.586   4.172   3.876
   60CHL1  H27A 6734   2.492   4.194   3.932
   60CHL1  H27B 6735   2.592   4.064   3.855
   60CHL1  H27C 6736   2.672   4.201   3.940
   61CHL1    C3 6737   1.272   1.067   2.253
   61CHL1    H3 6738   1.239   1.154   2.314
   61CHL1    O3 6739   1.215   1.076   2.124
   61CHL1   H3' 6740   1.218   1.171   2.100
   61CHL1    C4 6741   1.425   1.065   2.242
   61CHL1   H4A 6742   1.453   0.980   2.177
   61CHL1   H4B 6743   1.458   1.157   2.189
   61CHL1    C5 6744   1.493   1.047   2.376
   61CHL1    C6 6745   1.584   1.135   2.421
   61CHL1    H6 6746   1.613   1.219   2.356
   61CHL1    C7 6747   1.656   1.122   2.552
   61CHL1   H7A 6748   1.765   1.141   2.542
   61CHL1   H7B 6749   1.615   1.195   2.624
   61CHL1    C8 6750   1.636   0.985   2.622
   61CHL1    H8 6751   1.705   0.912   2.574
   61CHL1   C14 6752   1.666   0.998   2.771
   61CHL1   H14 6753   1.584   1.062   2.812
   61CHL1   C15 6754   1.795   1.068   2.816
   61CHL1  H15A 6755   1.881   1.035   2.754
   61CHL1  H15B 6756   1.784   1.179   2.808
   61CHL1   C16 6757   1.812   1.024   2.962
   61CHL1  H16A 6758   1.913   0.978   2.975
   61CHL1  H16B 6759   1.801   1.109   3.032
   61CHL1   C17 6760   1.700   0.918   2.990
   61CHL1   H17 6761   1.613   0.974   3.030
   61CHL1   C13 6762   1.657   0.868   2.850
   61CHL1   C18 6763   1.765   0.769   2.800
   61CHL1  H18A 6764   1.759   0.673   2.856
   61CHL1  H18B 6765   1.751   0.746   2.693
   61CHL1  H18C 6766   1.867   0.809   2.813
   61CHL1   C12 6767   1.512   0.817   2.835
   61CHL1  H12A 6768   1.497   0.718   2.882
   61CHL1  H12B 6769   1.444   0.889   2.886
   61CHL1   C11 6770   1.469   0.805   2.687
   61CHL1  H11A 6771   1.530   0.726   2.642
   61CHL1  H11B 6772   1.363   0.774   2.683
   61CHL1    C9 6773   1.492   0.935   2.606
   61CHL1    H9 6774   1.428   1.013   2.654
   61CHL1   C10 6775   1.444   0.927   2.458
   61CHL1   C19 6776   1.501   0.800   2.390
   61CHL1  H19A 6777   1.461   0.708   2.437
   61CHL1  H19B 6778   1.473   0.794   2.283
   61CHL1  H19C 6779   1.612   0.798   2.397
   61CHL1    C1 6780   1.288   0.919   2.458
   61CHL1   H1A 6781   1.256   0.821   2.498
   61CHL1   H1B 6782   1.248   0.998   2.525
   61CHL1    C2 6783   1.223   0.938   2.319
   61CHL1   H2A 6784   1.112   0.940   2.329
   61CHL1   H2B 6785   1.250   0.851   2.255
   61CHL1   C20 6786   1.741   0.816   3.097
   61CHL1   H20 6787   1.833   0.761   3.063
   61CHL1   C21 6788   1.630   0.710   3.116
   61CHL1  H21A 6789   1.533   0.759   3.141
   61CHL1  H21B 6790   1.656   0.637   3.194
   61CHL1  H21C 6791   1.619   0.651   3.023
   61CHL1   C22 6792   1.776   0.884   3.232
   61CHL1  H22A 6793   1.872   0.940   3.220
   61CHL1  H22B 6794   1.697   0.957   3.258
   61CHL1   C23 6795   1.792   0.785   3.348
   61CHL1  H23A 6796   1.692   0.744   3.375
   61CHL1  H23B 6797   1.856   0.700   3.316
   61CHL1   C24 6798   1.853   0.847   3.474
   61CHL1  H24A 6799   1.957   0.878   3.449
   61CHL1  H24B 6800   1.797   0.938   3.505
   61CHL1   C25 6801   1.857   0.746   3.591
   61CHL1   H25 6802   1.886   0.647   3.550
   61CHL1   C26 6803   1.964   0.788   3.691
   61CHL1  H26A 6804   1.973   0.714   3.773
   61CHL1  H26B 6805   2.062   0.798   3.640
   61CHL1  H26C 6806   1.936   0.887   3.735
   61CHL1   C27 6807   1.722   0.734   3.663
   61CHL1  H27A 6808   1.730   0.663   3.748
   61CHL1  H27B 6809   1.691   0.833   3.704
   61CHL1  H27C 6810   1.643   0.698   3.594
   62CHL1    C3 6811   4.125   0.878   2.233
   62CHL1    H3 6812   4.219   0.933   2.260
   62CHL1    O3 6813   4.114   0.874   2.093
   62CHL1   H3' 6814   4.135   0.965   2.066
   62CHL1    C4 6815   4.132   0.736   2.289
   62CHL1   H4A 6816   4.048   0.677   2.246
   62CHL1   H4B 6817   4.226   0.689   2.251
   62CHL1    C5 6818   4.126   0.733   2.440
   62CHL1    C6 6819   4.218   0.671   2.514
   62CHL1    H6 6820   4.300   0.616   2.464
   62CHL1    C7 6821   4.210   0.656   2.663
   62CHL1   H7A 6822   4.230   0.550   2.692
   62CHL1   H7B 6823   4.289   0.718   2.711
   62CHL1    C8 6824   4.072   0.696   2.720
   62CHL1    H8 6825   3.999   0.614   2.702
   62CHL1   C14 6826   4.083   0.723   2.869
   62CHL1   H14 6827   4.157   0.807   2.877
   62CHL1   C15 6828   4.140   0.612   2.959
   62CHL1  H15A 6829   4.088   0.516   2.937
   62CHL1  H15B 6830   4.249   0.597   2.945
   62CHL1   C16 6831   4.103   0.661   3.099
   62CHL1  H16A 6832   4.047   0.582   3.153
   62CHL1  H16B 6833   4.194   0.687   3.158
   62CHL1   C17 6834   4.014   0.788   3.078
   62CHL1   H17 6835   4.084   0.875   3.072
   62CHL1   C13 6836   3.956   0.773   2.938
   62CHL1   C18 6837   3.846   0.664   2.938
   62CHL1  H18A 6838   3.825   0.629   2.835
   62CHL1  H18B 6839   3.873   0.576   2.999
   62CHL1  H18C 6840   3.751   0.706   2.978
   62CHL1   C12 6841   3.910   0.902   2.869
   62CHL1  H12A 6842   3.814   0.938   2.909
   62CHL1  H12B 6843   3.987   0.981   2.884
   62CHL1   C11 6844   3.891   0.878   2.719
   62CHL1  H11A 6845   3.808   0.806   2.708
   62CHL1  H11B 6846   3.861   0.974   2.672
   62CHL1    C9 6847   4.020   0.824   2.652
   62CHL1    H9 6848   4.099   0.901   2.671
   62CHL1   C10 6849   4.008   0.812   2.499
   62CHL1   C19 6850   3.877   0.737   2.467
   62CHL1  H19A 6851   3.869   0.712   2.359
   62CHL1  H19B 6852   3.871   0.644   2.526
   62CHL1  H19C 6853   3.788   0.799   2.492
   62CHL1    C1 6854   4.003   0.954   2.438
   62CHL1   H1A 6855   3.911   1.005   2.472
   62CHL1   H1B 6856   4.090   1.012   2.475
   62CHL1    C2 6857   4.004   0.955   2.285
   62CHL1   H2A 6858   4.007   1.060   2.249
   62CHL1   H2B 6859   3.910   0.909   2.247
   62CHL1   C20 6860   3.924   0.815   3.196
   62CHL1   H20 6861   3.871   0.721   3.226
   62CHL1   C21 6862   3.818   0.924   3.168
   62CHL1  H21A 6863   3.742   0.888   3.096
   62CHL1  H21B 6864   3.867   1.014   3.127
   62CHL1  H21C 6865   3.764   0.953   3.260
   62CHL1   C22 6866   4.011   0.863   3.313
   62CHL1  H22A 6867   4.109   0.812   3.317
   62CHL1  H22B 6868   4.032   0.972   3.298
   62CHL1   C23 6869   3.940   0.839   3.444
   62CHL1  H23A 6870   3.832   0.861   3.433
   62CHL1  H23B 6871   3.953   0.732   3.472
   62CHL1   C24 6872   3.995   0.931   3.550
   62CHL1  H24A 6873   4.105   0.917   3.560
   62CHL1  H24B 6874   3.979   1.038   3.521
   62CHL1   C25 6875   3.931   0.907   3.686
   62CHL1   H25 6876   3.825   0.940   3.684
   62CHL1   C26 6877   3.939   0.761   3.733
   62CHL1  H26A 6878   4.045   0.729   3.740
   62CHL1  H26B 6879   3.894   0.756   3.835
   62CHL1  H26C 6880   3.885   0.689   3.669
   62CHL1   C27 6881   4.011   0.990   3.782
   62CHL1  H27A 6882   4.013   1.097   3.753
   62CHL1  H27B 6883   3.973   0.977   3.886
   62CHL1  H27C 6884   4.115   0.952   3.777
   63CHL1    C3 6885   1.652   0.388   2.255
   63CHL1    H3 6886   1.567   0.460   2.260
   63CHL1    O3 6887   1.723   0.410   2.135
   63CHL1   H3' 6888   1.653   0.426   2.069
   63CHL1    C4 6889   1.747   0.413   2.373
   63CHL1   H4A 6890   1.834   0.345   2.364
   63CHL1   H4B 6891   1.786   0.517   2.365
   63CHL1    C5 6892   1.670   0.389   2.501
   63CHL1    C6 6893   1.646   0.490   2.586
   63CHL1    H6 6894   1.687   0.590   2.565
   63CHL1    C7 6895   1.568   0.474   2.713
   63CHL1   H7A 6896   1.608   0.538   2.794
   63CHL1   H7B 6897   1.462   0.503   2.697
   63CHL1    C8 6898   1.571   0.327   2.761
   63CHL1    H8 6899   1.676   0.303   2.787
   63CHL1   C14 6900   1.481   0.310   2.883
   63CHL1   H14 6901   1.377   0.333   2.850
   63CHL1   C15 6902   1.507   0.400   3.006
   63CHL1  H15A 6903   1.616   0.420   3.017
   63CHL1  H15B 6904   1.453   0.497   2.996
   63CHL1   C16 6905   1.456   0.319   3.126
   63CHL1  H16A 6906   1.541   0.295   3.193
   63CHL1  H16B 6907   1.380   0.374   3.185
   63CHL1   C17 6908   1.399   0.187   3.067
   63CHL1   H17 6909   1.294   0.210   3.037
   63CHL1   C13 6910   1.479   0.167   2.936
   63CHL1   C18 6911   1.624   0.127   2.975
   63CHL1  H18A 6912   1.623   0.031   3.027
   63CHL1  H18B 6913   1.689   0.115   2.886
   63CHL1  H18C 6914   1.673   0.201   3.041
   63CHL1   C12 6915   1.417   0.080   2.824
   63CHL1  H12A 6916   1.413  -0.027   2.853
   63CHL1  H12B 6917   1.314   0.115   2.803
   63CHL1   C11 6918   1.501   0.089   2.696
   63CHL1  H11A 6919   1.597   0.038   2.717
   63CHL1  H11B 6920   1.451   0.032   2.615
   63CHL1    C9 6921   1.525   0.235   2.647
   63CHL1    H9 6922   1.424   0.273   2.618
   63CHL1   C10 6923   1.614   0.247   2.519
   63CHL1   C19 6924   1.731   0.145   2.529
   63CHL1  H19A 6925   1.789   0.161   2.622
   63CHL1  H19B 6926   1.693   0.041   2.528
   63CHL1  H19C 6927   1.800   0.153   2.442
   63CHL1    C1 6928   1.528   0.214   2.393
   63CHL1   H1A 6929   1.500   0.106   2.395
   63CHL1   H1B 6930   1.434   0.274   2.396
   63CHL1    C2 6931   1.598   0.244   2.259
   63CHL1   H2A 6932   1.528   0.229   2.174
   63CHL1   H2B 6933   1.684   0.174   2.244
   63CHL1   C20 6934   1.389   0.072   3.168
   63CHL1   H20 6935   1.491   0.037   3.196
   63CHL1   C21 6936   1.311  -0.045   3.105
   63CHL1  H21A 6937   1.220  -0.010   3.054
   63CHL1  H21B 6938   1.282  -0.120   3.181
   63CHL1  H21C 6939   1.375  -0.100   3.033
   63CHL1   C22 6940   1.323   0.119   3.301
   63CHL1  H22A 6941   1.391   0.191   3.352
   63CHL1  H22B 6942   1.229   0.173   3.276
   63CHL1   C23 6943   1.289   0.006   3.400
   63CHL1  H23A 6944   1.190  -0.036   3.370
   63CHL1  H23B 6945   1.363  -0.075   3.388
   63CHL1   C24 6946   1.280   0.050   3.547
   63CHL1  H24A 6947   1.226   0.147   3.552
   63CHL1  H24B 6948   1.218  -0.024   3.603
   63CHL1   C25 6949   1.414   0.064   3.622
   63CHL1   H25 6950   1.471   0.147   3.575
   63CHL1   C26 6951   1.389   0.100   3.769
   63CHL1  H26A 6952   1.325   0.022   3.817
   63CHL1  H26B 6953   1.484   0.106   3.825
   63CHL1  H26C 6954   1.336   0.197   3.777
   63CHL1   C27 6955   1.501  -0.063   3.615
   63CHL1  H27A 6956   1.445  -0.151   3.655
   63CHL1  H27B 6957   1.532  -0.085   3.511
   63CHL1  H27C 6958   1.594  -0.050   3.675
   64CHL1    C3 6959   4.668   3.849   2.253
   64CHL1    H3 6960   4.633   3.955   2.242
   64CHL1    O3 6961   4.694   3.792   2.126
   64CHL1   H3' 6962   4.768   3.842   2.088
   64CHL1    C4 6963   4.796   3.849   2.341
   64CHL1   H4A 6964   4.852   3.756   2.320
   64CHL1   H4B 6965   4.862   3.931   2.304
   64CHL1    C5 6966   4.768   3.865   2.490
   64CHL1    C6 6967   4.819   3.961   2.567
   64CHL1    H6 6968   4.891   4.032   2.527
   64CHL1    C7 6969   4.780   3.978   2.711
   64CHL1   H7A 6970   4.870   4.006   2.770
   64CHL1   H7B 6971   4.704   4.059   2.720
   64CHL1    C8 6972   4.719   3.857   2.781
   64CHL1    H8 6973   4.805   3.791   2.802
   64CHL1   C14 6974   4.636   3.892   2.905
   64CHL1   H14 6975   4.536   3.925   2.868
   64CHL1   C15 6976   4.675   4.010   2.992
   64CHL1  H15A 6977   4.782   3.996   3.014
   64CHL1  H15B 6978   4.657   4.108   2.944
   64CHL1   C16 6979   4.586   3.993   3.116
   64CHL1  H16A 6980   4.637   4.035   3.204
   64CHL1  H16B 6981   4.493   4.053   3.103
   64CHL1   C17 6982   4.547   3.842   3.125
   64CHL1   H17 6983   4.437   3.837   3.111
   64CHL1   C13 6984   4.611   3.775   2.998
   64CHL1   C18 6985   4.746   3.711   3.041
   64CHL1  H18A 6986   4.802   3.670   2.955
   64CHL1  H18B 6987   4.811   3.786   3.092
   64CHL1  H18C 6988   4.731   3.626   3.109
   64CHL1   C12 6989   4.524   3.678   2.916
   64CHL1  H12A 6990   4.524   3.581   2.967
   64CHL1  H12B 6991   4.420   3.715   2.909
   64CHL1   C11 6992   4.578   3.654   2.772
   64CHL1  H11A 6993   4.669   3.594   2.789
   64CHL1  H11B 6994   4.506   3.593   2.714
   64CHL1    C9 6995   4.622   3.782   2.694
   64CHL1    H9 6996   4.530   3.845   2.685
   64CHL1   C10 6997   4.671   3.763   2.549
   64CHL1   C19 6998   4.756   3.635   2.550
   64CHL1  H19A 6999   4.809   3.612   2.456
   64CHL1  H19B 7000   4.834   3.642   2.629
   64CHL1  H19C 7001   4.694   3.548   2.575
   64CHL1    C1 7002   4.543   3.772   2.462
   64CHL1   H1A 7003   4.468   3.697   2.497
   64CHL1   H1B 7004   4.502   3.874   2.481
   64CHL1    C2 7005   4.553   3.766   2.310
   64CHL1   H2A 7006   4.459   3.804   2.265
   64CHL1   H2B 7007   4.559   3.661   2.280
   64CHL1   C20 7008   4.576   3.781   3.264
   64CHL1   H20 7009   4.686   3.770   3.276
   64CHL1   C21 7010   4.510   3.643   3.273
   64CHL1  H21A 7011   4.399   3.652   3.270
   64CHL1  H21B 7012   4.539   3.591   3.367
   64CHL1  H21C 7013   4.542   3.579   3.189
   64CHL1   C22 7014   4.531   3.867   3.386
   64CHL1  H22A 7015   4.581   3.966   3.384
   64CHL1  H22B 7016   4.422   3.885   3.383
   64CHL1   C23 7017   4.570   3.804   3.521
   64CHL1  H23A 7018   4.500   3.722   3.545
   64CHL1  H23B 7019   4.672   3.760   3.511
   64CHL1   C24 7020   4.574   3.905   3.637
   64CHL1  H24A 7021   4.646   3.986   3.611
   64CHL1  H24B 7022   4.474   3.953   3.648
   64CHL1   C25 7023   4.616   3.845   3.772
   64CHL1   H25 7024   4.710   3.787   3.757
   64CHL1   C26 7025   4.646   3.957   3.873
   64CHL1  H26A 7026   4.674   3.914   3.971
   64CHL1  H26B 7027   4.729   4.021   3.836
   64CHL1  H26C 7028   4.556   4.021   3.887
   64CHL1   C27 7029   4.509   3.750   3.829
   64CHL1  H27A 7030   4.495   3.661   3.763
   64CHL1  H27B 7031   4.540   3.714   3.930
   64CHL1  H27C 7032   4.412   3.802   3.839
   65CHL1    C3 7033   0.308   3.937   2.252
   65CHL1    H3 7034   0.411   3.944   2.295
   65CHL1    O3 7035   0.320   3.902   2.115
   65CHL1   H3' 7036   0.267   3.822   2.104
   65CHL1    C4 7037   0.227   3.830   2.327
   65CHL1   H4A 7038   0.122   3.831   2.290
   65CHL1   H4B 7039   0.270   3.731   2.305
   65CHL1    C5 7040   0.229   3.862   2.475
   65CHL1    C6 7041   0.279   3.773   2.562
   65CHL1    H6 7042   0.310   3.675   2.525
   65CHL1    C7 7043   0.294   3.793   2.710
   65CHL1   H7A 7044   0.255   3.705   2.765
   65CHL1   H7B 7045   0.403   3.801   2.734
   65CHL1    C8 7046   0.220   3.920   2.757
   65CHL1    H8 7047   0.113   3.891   2.759
   65CHL1   C14 7048   0.269   3.960   2.895
   65CHL1   H14 7049   0.378   3.985   2.884
   65CHL1   C15 7050   0.262   3.854   3.006
   65CHL1  H15A 7051   0.165   3.799   2.998
   65CHL1  H15B 7052   0.344   3.780   2.998
   65CHL1   C16 7053   0.265   3.934   3.136
   65CHL1  H16A 7054   0.182   3.900   3.202
   65CHL1  H16B 7055   0.361   3.921   3.190
   65CHL1   C17 7056   0.248   4.085   3.098
   65CHL1   H17 7057   0.350   4.129   3.099
   65CHL1   C13 7058   0.201   4.083   2.950
   65CHL1   C18 7059   0.050   4.058   2.950
   65CHL1  H18A 7060   0.008   4.030   2.851
   65CHL1  H18B 7061   0.021   3.980   3.023
   65CHL1  H18C 7062   0.003   4.155   2.974
   65CHL1   C12 7063   0.231   4.203   2.859
   65CHL1  H12A 7064   0.176   4.295   2.890
   65CHL1  H12B 7065   0.338   4.228   2.862
   65CHL1   C11 7066   0.188   4.174   2.713
   65CHL1  H11A 7067   0.077   4.178   2.710
   65CHL1  H11B 7068   0.224   4.256   2.648
   65CHL1    C9 7069   0.238   4.037   2.659
   65CHL1    H9 7070   0.349   4.050   2.650
   65CHL1   C10 7071   0.187   4.004   2.516
   65CHL1   C19 7072   0.031   4.005   2.513
   65CHL1  H19A 7073  -0.012   3.931   2.583
   65CHL1  H19B 7074  -0.008   4.106   2.538
   65CHL1  H19C 7075  -0.006   3.983   2.411
   65CHL1    C1 7076   0.240   4.113   2.418
   65CHL1   H1A 7077   0.181   4.206   2.431
   65CHL1   H1B 7078   0.346   4.137   2.445
   65CHL1    C2 7079   0.239   4.074   2.269
   65CHL1   H2A 7080   0.293   4.151   2.210
   65CHL1   H2B 7081   0.134   4.069   2.232
   65CHL1   C20 7082   0.168   4.165   3.202
   65CHL1   H20 7083   0.065   4.124   3.201
   65CHL1   C21 7084   0.167   4.315   3.168
   65CHL1  H21A 7085   0.115   4.374   3.246
   65CHL1  H21B 7086   0.112   4.335   3.074
   65CHL1  H21C 7087   0.271   4.353   3.159
   65CHL1   C22 7088   0.211   4.145   3.350
   65CHL1  H22A 7089   0.230   4.038   3.370
   65CHL1  H22B 7090   0.304   4.202   3.368
   65CHL1   C23 7091   0.100   4.189   3.448
   65CHL1  H23A 7092   0.089   4.300   3.446
   65CHL1  H23B 7093   0.004   4.145   3.413
   65CHL1   C24 7094   0.121   4.141   3.592
   65CHL1  H24A 7095   0.132   4.031   3.591
   65CHL1  H24B 7096   0.213   4.185   3.633
   65CHL1   C25 7097   0.005   4.179   3.687
   65CHL1   H25 7098  -0.090   4.169   3.630
   65CHL1   C26 7099  -0.003   4.085   3.807
   65CHL1  H26A 7100  -0.011   3.980   3.773
   65CHL1  H26B 7101   0.088   4.095   3.870
   65CHL1  H26C 7102  -0.092   4.109   3.869
   65CHL1   C27 7103   0.020   4.325   3.735
   65CHL1  H27A 7104   0.118   4.339   3.786
   65CHL1  H27B 7105   0.016   4.394   3.649
   65CHL1  H27C 7106  -0.061   4.352   3.806
   66CHL1    C3 7107   0.464   0.893   2.252
   66CHL1    H3 7108   0.495   0.789   2.278
   66CHL1    O3 7109   0.454   0.907   2.111
   66CHL1   H3' 7110   0.493   0.995   2.094
   66CHL1    C4 7111   0.327   0.924   2.318
   66CHL1   H4A 7112   0.287   1.019   2.275
   66CHL1   H4B 7113   0.256   0.843   2.287
   66CHL1    C5 7114   0.335   0.938   2.470
   66CHL1    C6 7115   0.257   0.869   2.555
   66CHL1    H6 7116   0.180   0.801   2.515
   66CHL1    C7 7117   0.266   0.879   2.705
   66CHL1   H7A 7118   0.164   0.884   2.750
   66CHL1   H7B 7119   0.313   0.786   2.743
   66CHL1    C8 7120   0.348   1.000   2.757
   66CHL1    H8 7121   0.283   1.089   2.753
   66CHL1   C14 7122   0.398   0.976   2.901
   66CHL1   H14 7123   0.469   0.890   2.894
   66CHL1   C15 7124   0.297   0.935   3.008
   66CHL1  H15A 7125   0.210   1.003   3.007
   66CHL1  H15B 7126   0.261   0.832   2.993
   66CHL1   C16 7127   0.374   0.953   3.139
   66CHL1  H16A 7128   0.311   1.008   3.212
   66CHL1  H16B 7129   0.403   0.856   3.184
   66CHL1   C17 7130   0.504   1.033   3.106
   66CHL1   H17 7131   0.586   0.958   3.093
   66CHL1   C13 7132   0.478   1.090   2.964
   66CHL1   C18 7133   0.388   1.215   2.979
   66CHL1  H18A 7134   0.449   1.298   3.021
   66CHL1  H18B 7135   0.347   1.247   2.882
   66CHL1  H18C 7136   0.303   1.198   3.048
   66CHL1   C12 7137   0.600   1.119   2.875
   66CHL1  H12A 7138   0.654   1.209   2.911
   66CHL1  H12B 7139   0.669   1.032   2.879
   66CHL1   C11 7140   0.556   1.142   2.729
   66CHL1  H11A 7141   0.497   1.234   2.724
   66CHL1  H11B 7142   0.647   1.157   2.667
   66CHL1    C9 7143   0.472   1.024   2.671
   66CHL1    H9 7144   0.536   0.933   2.685
   66CHL1   C10 7145   0.447   1.032   2.519
   66CHL1   C19 7146   0.399   1.174   2.480
   66CHL1  H19A 7147   0.475   1.250   2.507
   66CHL1  H19B 7148   0.381   1.184   2.371
   66CHL1  H19C 7149   0.304   1.197   2.533
   66CHL1    C1 7150   0.580   0.997   2.447
   66CHL1   H1A 7151   0.658   1.071   2.474
   66CHL1   H1B 7152   0.616   0.898   2.484
   66CHL1    C2 7153   0.571   0.992   2.295
   66CHL1   H2A 7154   0.670   0.962   2.253
   66CHL1   H2B 7155   0.548   1.094   2.258
   66CHL1   C20 7156   0.544   1.125   3.222
   66CHL1   H20 7157   0.460   1.196   3.240
   66CHL1   C21 7158   0.671   1.208   3.188
   66CHL1  H21A 7159   0.649   1.283   3.110
   66CHL1  H21B 7160   0.752   1.142   3.152
   66CHL1  H21C 7161   0.706   1.261   3.278
   66CHL1   C22 7162   0.568   1.049   3.355
   66CHL1  H22A 7163   0.510   0.954   3.358
   66CHL1  H22B 7164   0.675   1.021   3.362
   66CHL1   C23 7165   0.525   1.131   3.478
   66CHL1  H23A 7166   0.564   1.235   3.466
   66CHL1  H23B 7167   0.414   1.138   3.481
   66CHL1   C24 7168   0.578   1.078   3.613
   66CHL1  H24A 7169   0.689   1.087   3.613
   66CHL1  H24B 7170   0.539   1.144   3.693
   66CHL1   C25 7171   0.541   0.933   3.650
   66CHL1   H25 7172   0.578   0.866   3.568
   66CHL1   C26 7173   0.613   0.894   3.779
   66CHL1  H26A 7174   0.590   0.789   3.808
   66CHL1  H26B 7175   0.723   0.902   3.765
   66CHL1  H26C 7176   0.584   0.962   3.862
   66CHL1   C27 7177   0.390   0.911   3.665
   66CHL1  H27A 7178   0.336   0.933   3.571
   66CHL1  H27B 7179   0.370   0.804   3.692
   66CHL1  H27C 7180   0.349   0.975   3.746
   67CHL1    C3 7181   0.965   0.267   2.236
   67CHL1    H3 7182   0.984   0.157   2.230
   67CHL1    O3 7183   0.952   0.317   2.104
   67CHL1   H3' 7184   0.873   0.272   2.068
   67CHL1    C4 7185   0.834   0.291   2.313
   67CHL1   H4A 7186   0.802   0.397   2.302
   67CHL1   H4B 7187   0.754   0.229   2.267
   67CHL1    C5 7188   0.853   0.256   2.459
   67CHL1    C6 7189   0.780   0.161   2.519
   67CHL1    H6 7190   0.700   0.110   2.462
   67CHL1    C7 7191   0.794   0.127   2.664
   67CHL1   H7A 7192   0.696   0.098   2.706
   67CHL1   H7B 7193   0.861   0.039   2.676
   67CHL1    C8 7194   0.854   0.247   2.742
   67CHL1    H8 7195   0.781   0.331   2.737
   67CHL1   C14 7196   0.878   0.210   2.887
   67CHL1   H14 7197   0.953   0.127   2.886
   67CHL1   C15 7198   0.759   0.156   2.967
   67CHL1  H15A 7199   0.674   0.224   2.947
   67CHL1  H15B 7200   0.731   0.053   2.941
   67CHL1   C16 7201   0.802   0.171   3.113
   67CHL1  H16A 7202   0.723   0.225   3.170
   67CHL1  H16B 7203   0.819   0.074   3.162
   67CHL1   C17 7204   0.934   0.255   3.111
   67CHL1   H17 7205   1.019   0.182   3.112
   67CHL1   C13 7206   0.939   0.321   2.973
   67CHL1   C18 7207   0.848   0.447   2.975
   67CHL1  H18A 7208   0.751   0.426   3.024
   67CHL1  H18B 7209   0.896   0.530   3.030
   67CHL1  H18C 7210   0.827   0.484   2.873
   67CHL1   C12 7211   1.078   0.348   2.913
   67CHL1  H12A 7212   1.134   0.424   2.970
   67CHL1  H12B 7213   1.135   0.253   2.914
   67CHL1   C11 7214   1.067   0.392   2.766
   67CHL1  H11A 7215   1.019   0.492   2.767
   67CHL1  H11B 7216   1.169   0.403   2.723
   67CHL1    C9 7217   0.986   0.291   2.678
   67CHL1    H9 7218   1.048   0.198   2.676
   67CHL1   C10 7219   0.967   0.334   2.530
   67CHL1   C19 7220   0.935   0.486   2.528
   67CHL1  H19A 7221   0.911   0.522   2.426
   67CHL1  H19B 7222   0.848   0.508   2.593
   67CHL1  H19C 7223   1.022   0.545   2.561
   67CHL1    C1 7224   1.097   0.304   2.451
   67CHL1   H1A 7225   1.181   0.362   2.495
   67CHL1   H1B 7226   1.122   0.196   2.463
   67CHL1    C2 7227   1.086   0.336   2.301
   67CHL1   H2A 7228   1.179   0.304   2.250
   67CHL1   H2B 7229   1.076   0.446   2.289
   67CHL1   C20 7230   0.947   0.339   3.239
   67CHL1   H20 7231   0.857   0.405   3.248
   67CHL1   C21 7232   1.071   0.431   3.235
   67CHL1  H21A 7233   1.163   0.372   3.223
   67CHL1  H21B 7234   1.078   0.490   3.329
   67CHL1  H21C 7235   1.064   0.505   3.153
   67CHL1   C22 7236   0.949   0.244   3.361
   67CHL1  H22A 7237   0.852   0.188   3.366
   67CHL1  H22B 7238   1.030   0.169   3.349
   67CHL1   C23 7239   0.967   0.313   3.495
   67CHL1  H23A 7240   1.070   0.356   3.501
   67CHL1  H23B 7241   0.894   0.397   3.502
   67CHL1   C24 7242   0.947   0.216   3.612
   67CHL1  H24A 7243   0.838   0.202   3.631
   67CHL1  H24B 7244   0.990   0.117   3.585
   67CHL1   C25 7245   1.017   0.265   3.740
   67CHL1   H25 7246   1.125   0.274   3.716
   67CHL1   C26 7247   0.968   0.404   3.780
   67CHL1  H26A 7248   0.943   0.469   3.694
   67CHL1  H26B 7249   0.877   0.395   3.844
   67CHL1  H26C 7250   1.048   0.455   3.838
   67CHL1   C27 7251   1.001   0.166   3.856
   67CHL1  H27A 7252   1.049   0.069   3.833
   67CHL1  H27B 7253   1.047   0.208   3.948
   67CHL1  H27C 7254   0.893   0.148   3.877
   68CHL1    C3 7255   4.891   0.880   2.262
   68CHL1    H3 7256   4.845   0.982   2.267
   68CHL1    O3 7257   4.898   0.839   2.127
   68CHL1   H3' 7258   4.983   0.871   2.093
   68CHL1    C4 7259   5.033   0.883   2.321
   68CHL1   H4A 7260   5.078   0.782   2.310
   68CHL1   H4B 7261   5.096   0.951   2.260
   68CHL1    C5 7262   5.029   0.924   2.467
   68CHL1    C6 7263   5.096   1.031   2.511
   68CHL1    H6 7264   5.162   1.086   2.442
   68CHL1    C7 7265   5.097   1.078   2.654
   68CHL1   H7A 7266   5.200   1.107   2.686
   68CHL1   H7B 7267   5.032   1.168   2.665
   68CHL1    C8 7268   5.046   0.968   2.751
   68CHL1    H8 7269   5.128   0.893   2.757
   68CHL1   C14 7270   5.016   1.025   2.889
   68CHL1   H14 7271   4.928   1.093   2.876
   68CHL1   C15 7272   5.124   1.112   2.957
   68CHL1  H15A 7273   5.222   1.065   2.937
   68CHL1  H15B 7274   5.126   1.215   2.918
   68CHL1   C16 7275   5.089   1.106   3.107
   68CHL1  H16A 7276   5.179   1.072   3.163
   68CHL1  H16B 7277   5.058   1.205   3.146
   68CHL1   C17 7278   4.973   1.003   3.123
   68CHL1   H17 7279   4.878   1.060   3.122
   68CHL1   C13 7280   4.974   0.921   2.992
   68CHL1   C18 7281   5.083   0.813   3.008
   68CHL1  H18A 7282   5.176   0.855   3.051
   68CHL1  H18B 7283   5.049   0.730   3.073
   68CHL1  H18C 7284   5.108   0.768   2.911
   68CHL1   C12 7285   4.840   0.864   2.941
   68CHL1  H12A 7286   4.798   0.787   3.009
   68CHL1  H12B 7287   4.766   0.946   2.935
   68CHL1   C11 7288   4.857   0.801   2.802
   68CHL1  H11A 7289   4.921   0.711   2.814
   68CHL1  H11B 7290   4.758   0.766   2.766
   68CHL1    C9 7291   4.919   0.899   2.697
   68CHL1    H9 7292   4.845   0.982   2.686
   68CHL1   C10 7293   4.937   0.838   2.556
   68CHL1   C19 7294   5.004   0.698   2.569
   68CHL1  H19A 7295   5.098   0.706   2.627
   68CHL1  H19B 7296   4.936   0.628   2.621
   68CHL1  H19C 7297   5.026   0.652   2.470
   68CHL1    C1 7298   4.797   0.822   2.489
   68CHL1   H1A 7299   4.740   0.745   2.544
   68CHL1   H1B 7300   4.742   0.918   2.498
   68CHL1    C2 7301   4.803   0.782   2.341
   68CHL1   H2A 7302   4.701   0.780   2.297
   68CHL1   H2B 7303   4.846   0.680   2.331
   68CHL1   C20 7304   4.978   0.926   3.256
   68CHL1   H20 7305   5.074   0.869   3.262
   68CHL1   C21 7306   4.862   0.824   3.265
   68CHL1  H21A 7307   4.764   0.874   3.249
   68CHL1  H21B 7308   4.859   0.771   3.362
   68CHL1  H21C 7309   4.876   0.744   3.190
   68CHL1   C22 7310   4.977   1.018   3.381
   68CHL1  H22A 7311   5.068   1.080   3.381
   68CHL1  H22B 7312   4.889   1.086   3.378
   68CHL1   C23 7313   4.972   0.934   3.510
   68CHL1  H23A 7314   4.867   0.909   3.533
   68CHL1  H23B 7315   5.027   0.839   3.492
   68CHL1   C24 7316   5.038   1.000   3.631
   68CHL1  H24A 7317   5.142   1.027   3.604
   68CHL1  H24B 7318   4.983   1.093   3.654
   68CHL1   C25 7319   5.042   0.905   3.752
   68CHL1   H25 7320   5.078   0.807   3.712
   68CHL1   C26 7321   5.143   0.948   3.860
   68CHL1  H26A 7322   5.115   1.041   3.913
   68CHL1  H26B 7323   5.153   0.869   3.937
   68CHL1  H26C 7324   5.243   0.964   3.814
   68CHL1   C27 7325   4.902   0.879   3.811
   68CHL1  H27A 7326   4.852   0.975   3.833
   68CHL1  H27B 7327   4.838   0.823   3.740
   68CHL1  H27C 7328   4.910   0.820   3.905
   69SLPC     N 7329   2.077   4.163   5.768
   69SLPC   C13 7330   2.111   4.304   5.797
   69SLPC  H13A 7331   2.151   4.354   5.709
   69SLPC  H13B 7332   2.026   4.359   5.836
   69SLPC  H13C 7333   2.190   4.312   5.872
   69SLPC   C14 7334   2.040   4.093   5.895
   69SLPC  H14A 7335   2.017   3.989   5.871
   69SLPC  H14B 7336   2.125   4.092   5.963
   69SLPC  H14C 7337   1.954   4.137   5.943
   69SLPC   C15 7338   2.199   4.095   5.715
   69SLPC  H15A 7339   2.174   3.992   5.684
   69SLPC  H15B 7340   2.244   4.149   5.632
   69SLPC  H15C 7341   2.272   4.083   5.793
   69SLPC   C12 7342   1.962   4.147   5.672
   69SLPC  H12A 7343   1.973   4.219   5.592
   69SLPC  H12B 7344   1.870   4.170   5.725
   69SLPC   C11 7345   1.942   4.007   5.608
   69SLPC  H11A 7346   2.026   3.989   5.537
   69SLPC  H11B 7347   1.849   4.007   5.546
   69SLPC     P 7348   2.018   3.775   5.705
   69SLPC   O13 7349   2.149   3.809   5.767
   69SLPC   O14 7350   1.945   3.659   5.759
   69SLPC   O12 7351   1.929   3.906   5.708
   69SLPC   O11 7352   2.040   3.757   5.551
   69SLPC    C1 7353   2.148   3.679   5.502
   69SLPC    HA 7354   2.200   3.619   5.581
   69SLPC    HB 7355   2.105   3.606   5.431
   69SLPC    C2 7356   2.256   3.765   5.428
   69SLPC    HS 7357   2.334   3.789   5.504
   69SLPC   O21 7358   2.197   3.887   5.378
   69SLPC   C21 7359   2.287   3.978   5.342
   69SLPC   O22 7360   2.407   3.962   5.347
   69SLPC   C22 7361   2.216   4.103   5.291
   69SLPC   H2R 7362   2.108   4.096   5.315
   69SLPC   H2S 7363   2.259   4.190   5.344
   69SLPC    C3 7364   2.320   3.682   5.312
   69SLPC    HX 7365   2.383   3.604   5.361
   69SLPC    HY 7366   2.388   3.743   5.249
   69SLPC   O31 7367   2.217   3.616   5.236
   69SLPC   C31 7368   2.175   3.672   5.125
   69SLPC   O32 7369   2.231   3.762   5.064
   69SLPC   C32 7370   2.049   3.596   5.079
   69SLPC   H2X 7371   2.012   3.535   5.164
   69SLPC   H2Y 7372   2.078   3.525   5.000
   69SLPC   C23 7373   2.237   4.115   5.139
   69SLPC   H3R 7374   2.253   4.014   5.094
   69SLPC   H3S 7375   2.328   4.175   5.117
   69SLPC   C24 7376   2.117   4.175   5.064
   69SLPC   H4R 7377   2.105   4.282   5.092
   69SLPC   H4S 7378   2.024   4.121   5.092
   69SLPC   C25 7379   2.141   4.161   4.914
   69SLPC   H5R 7380   2.147   4.053   4.887
   69SLPC   H5S 7381   2.241   4.206   4.892
   69SLPC   C26 7382   2.037   4.230   4.826
   69SLPC   H6R 7383   2.023   4.333   4.865
   69SLPC   H6S 7384   1.940   4.177   4.831
   69SLPC   C27 7385   2.087   4.240   4.681
   69SLPC   H7R 7386   2.195   4.263   4.687
   69SLPC   H7S 7387   2.038   4.327   4.632
   69SLPC   C28 7388   2.064   4.113   4.597
   69SLPC   H8R 7389   1.965   4.072   4.624
   69SLPC   H8S 7390   2.140   4.037   4.629
   69SLPC   C29 7391   2.076   4.136   4.448
   69SLPC   H9R 7392   2.174   4.174   4.415
   69SLPC  C210 7393   1.982   4.116   4.354
   69SLPC  H10R 7394   2.007   4.138   4.248
   69SLPC  C211 7395   1.842   4.066   4.376
   69SLPC  H11R 7396   1.773   4.145   4.338
   69SLPC  H11S 7397   1.817   4.058   4.484
   69SLPC  C212 7398   1.810   3.935   4.309
   69SLPC  H12R 7399   1.829   3.845   4.369
   69SLPC  C213 7400   1.757   3.922   4.186
   69SLPC  H13R 7401   1.729   3.822   4.149
   69SLPC  C214 7402   1.723   4.037   4.096
   69SLPC  H14R 7403   1.781   4.128   4.121
   69SLPC  H14S 7404   1.617   4.063   4.116
   69SLPC  C215 7405   1.738   4.010   3.945
   69SLPC  H15R 7406   1.684   4.089   3.888
   69SLPC  H15S 7407   1.692   3.912   3.918
   69SLPC  C216 7408   1.883   4.015   3.897
   69SLPC  H16R 7409   1.893   3.970   3.796
   69SLPC  H16S 7410   1.943   3.954   3.969
   69SLPC  C217 7411   1.937   4.159   3.896
   69SLPC  H17R 7412   2.036   4.157   3.948
   69SLPC  H17S 7413   1.871   4.225   3.956
   69SLPC  C218 7414   1.955   4.221   3.757
   69SLPC  H18R 7415   2.049   4.186   3.711
   69SLPC  H18S 7416   1.962   4.332   3.764
   69SLPC  H18T 7417   1.870   4.195   3.691
   69SLPC   C33 7418   1.934   3.686   5.030
   69SLPC   H3X 7419   1.908   3.761   5.109
   69SLPC   H3Y 7420   1.844   3.623   5.013
   69SLPC   C34 7421   1.965   3.761   4.899
   69SLPC   H4X 7422   2.045   3.836   4.918
   69SLPC   H4Y 7423   1.875   3.818   4.868
   69SLPC   C35 7424   2.009   3.671   4.782
   69SLPC   H5X 7425   1.929   3.599   4.757
   69SLPC   H5Y 7426   2.101   3.614   4.810
   69SLPC   C36 7427   2.045   3.758   4.662
   69SLPC   H6X 7428   2.127   3.827   4.694
   69SLPC   H6Y 7429   1.958   3.821   4.633
   69SLPC   C37 7430   2.092   3.678   4.540
   69SLPC   H7X 7431   2.004   3.624   4.497
   69SLPC   H7Y 7432   2.167   3.602   4.570
   69SLPC   C38 7433   2.154   3.770   4.434
   69SLPC   H8X 7434   2.091   3.861   4.424
   69SLPC   H8Y 7435   2.150   3.717   4.336
   69SLPC   C39 7436   2.299   3.808   4.466
   69SLPC   H9X 7437   2.360   3.715   4.457
   69SLPC   H9Y 7438   2.306   3.843   4.571
   69SLPC  C310 7439   2.361   3.917   4.376
   69SLPC  H10X 7440   2.471   3.906   4.377
   69SLPC  H10Y 7441   2.336   4.018   4.415
   69SLPC  C311 7442   2.311   3.903   4.232
   69SLPC  H11X 7443   2.204   3.935   4.227
   69SLPC  H11Y 7444   2.317   3.794   4.210
   69SLPC  C312 7445   2.389   3.976   4.122
   69SLPC  H12X 7446   2.494   3.939   4.123
   69SLPC  H12Y 7447   2.390   4.085   4.142
   69SLPC  C313 7448   2.325   3.949   3.984
   69SLPC  H13X 7449   2.392   3.991   3.906
   69SLPC  H13Y 7450   2.228   4.004   3.977
   69SLPC  C314 7451   2.302   3.800   3.951
   69SLPC  H14X 7452   2.383   3.739   3.997
   69SLPC  H14Y 7453   2.311   3.789   3.840
   69SLPC  C315 7454   2.163   3.746   3.990
   69SLPC  H15X 7455   2.088   3.812   3.942
   69SLPC  H15Y 7456   2.147   3.751   4.100
   69SLPC  C316 7457   2.139   3.601   3.945
   69SLPC  H16X 7458   2.218   3.536   3.989
   69SLPC  H16Y 7459   2.152   3.597   3.835
   69SLPC  C317 7460   2.000   3.544   3.984
   69SLPC  H17X 7461   2.007   3.502   4.087
   69SLPC  H17Y 7462   1.978   3.459   3.915
   69SLPC  C318 7463   1.883   3.643   3.981
   69SLPC  H18X 7464   1.789   3.593   4.013
   69SLPC  H18Y 7465   1.867   3.686   3.880
   69SLPC  H18Z 7466   1.902   3.727   4.051
   70SLPC     N 7467   4.152   3.327   5.968
   70SLPC   C13 7468   4.063   3.232   5.894
   70SLPC  H13A 7469   4.066   3.133   5.937
   70SLPC  H13B 7470   3.962   3.268   5.890
   70SLPC  H13C 7471   4.099   3.226   5.790
   70SLPC   C14 7472   4.281   3.257   5.992
   70SLPC  H14A 7473   4.349   3.316   6.054
   70SLPC  H14B 7474   4.264   3.164   6.045
   70SLPC  H14C 7475   4.330   3.236   5.898
   70SLPC   C15 7476   4.090   3.361   6.100
   70SLPC  H15A 7477   4.066   3.270   6.154
   70SLPC  H15B 7478   4.159   3.419   6.161
   70SLPC  H15C 7479   3.997   3.415   6.086
   70SLPC   C12 7480   4.176   3.450   5.882
   70SLPC  H12A 7481   4.217   3.531   5.941
   70SLPC  H12B 7482   4.079   3.483   5.845
   70SLPC   C11 7483   4.262   3.436   5.754
   70SLPC  H11A 7484   4.360   3.387   5.776
   70SLPC  H11B 7485   4.284   3.538   5.713
   70SLPC     P 7486   4.253   3.320   5.519
   70SLPC   O13 7487   4.174   3.379   5.409
   70SLPC   O14 7488   4.399   3.343   5.519
   70SLPC   O12 7489   4.189   3.362   5.658
   70SLPC   O11 7490   4.225   3.165   5.526
   70SLPC    C1 7491   4.282   3.084   5.630
   70SLPC    HA 7492   4.390   3.107   5.641
   70SLPC    HB 7493   4.232   3.103   5.727
   70SLPC    C2 7494   4.268   2.932   5.595
   70SLPC    HS 7495   4.343   2.874   5.653
   70SLPC   O21 7496   4.288   2.912   5.454
   70SLPC   C21 7497   4.408   2.947   5.413
   70SLPC   O22 7498   4.505   2.960   5.487
   70SLPC   C22 7499   4.408   2.952   5.260
   70SLPC   H2R 7500   4.490   2.884   5.229
   70SLPC   H2S 7501   4.311   2.913   5.221
   70SLPC    C3 7502   4.128   2.875   5.632
   70SLPC    HX 7503   4.126   2.856   5.741
   70SLPC    HY 7504   4.117   2.775   5.582
   70SLPC   O31 7505   4.021   2.966   5.598
   70SLPC   C31 7506   3.994   2.967   5.467
   70SLPC   O32 7507   4.020   2.877   5.390
   70SLPC   C32 7508   3.919   3.095   5.430
   70SLPC   H2X 7509   3.973   3.181   5.474
   70SLPC   H2Y 7510   3.817   3.088   5.473
   70SLPC   C23 7511   4.442   3.089   5.198
   70SLPC   H3R 7512   4.494   3.066   5.102
   70SLPC   H3S 7513   4.513   3.145   5.262
   70SLPC   C24 7514   4.321   3.178   5.165
   70SLPC   H4R 7515   4.258   3.190   5.255
   70SLPC   H4S 7516   4.258   3.130   5.087
   70SLPC   C25 7517   4.366   3.318   5.116
   70SLPC   H5R 7518   4.436   3.360   5.192
   70SLPC   H5S 7519   4.278   3.386   5.111
   70SLPC   C26 7520   4.433   3.309   4.980
   70SLPC   H6R 7521   4.357   3.278   4.905
   70SLPC   H6S 7522   4.511   3.229   4.984
   70SLPC   C27 7523   4.502   3.436   4.928
   70SLPC   H7R 7524   4.589   3.457   4.995
   70SLPC   H7S 7525   4.433   3.522   4.935
   70SLPC   C28 7526   4.551   3.419   4.783
   70SLPC   H8R 7527   4.619   3.505   4.758
   70SLPC   H8S 7528   4.463   3.429   4.716
   70SLPC   C29 7529   4.622   3.288   4.760
   70SLPC   H9R 7530   4.724   3.283   4.801
   70SLPC  C210 7531   4.576   3.179   4.695
   70SLPC  H10R 7532   4.645   3.093   4.686
   70SLPC  C211 7533   4.442   3.159   4.628
   70SLPC  H11R 7534   4.459   3.109   4.530
   70SLPC  H11S 7535   4.405   3.258   4.601
   70SLPC  C212 7536   4.332   3.087   4.706
   70SLPC  H12R 7537   4.343   3.089   4.815
   70SLPC  C213 7538   4.226   3.022   4.653
   70SLPC  H13R 7539   4.154   2.975   4.722
   70SLPC  C214 7540   4.192   3.006   4.506
   70SLPC  H14R 7541   4.274   3.047   4.443
   70SLPC  H14S 7542   4.101   3.065   4.483
   70SLPC  C215 7543   4.167   2.862   4.453
   70SLPC  H15R 7544   4.066   2.829   4.485
   70SLPC  H15S 7545   4.241   2.791   4.496
   70SLPC  C216 7546   4.175   2.852   4.299
   70SLPC  H16R 7547   4.137   2.752   4.269
   70SLPC  H16S 7548   4.282   2.858   4.268
   70SLPC  C217 7549   4.095   2.960   4.225
   70SLPC  H17R 7550   4.138   3.061   4.248
   70SLPC  H17S 7551   3.992   2.960   4.266
   70SLPC  C218 7552   4.091   2.943   4.073
   70SLPC  H18R 7553   4.054   2.842   4.046
   70SLPC  H18S 7554   4.192   2.958   4.029
   70SLPC  H18T 7555   4.022   3.018   4.028
   70SLPC   C33 7556   3.911   3.110   5.276
   70SLPC   H3X 7557   3.895   3.010   5.230
   70SLPC   H3Y 7558   4.008   3.149   5.238
   70SLPC   C34 7559   3.795   3.200   5.229
   70SLPC   H4X 7560   3.725   3.217   5.313
   70SLPC   H4Y 7561   3.739   3.150   5.148
   70SLPC   C35 7562   3.838   3.334   5.168
   70SLPC   H5X 7563   3.929   3.374   5.218
   70SLPC   H5Y 7564   3.754   3.404   5.185
   70SLPC   C36 7565   3.862   3.332   5.017
   70SLPC   H6X 7566   3.854   3.438   4.983
   70SLPC   H6Y 7567   3.783   3.275   4.963
   70SLPC   C37 7568   4.002   3.282   4.981
   70SLPC   H7X 7569   4.000   3.172   4.964
   70SLPC   H7Y 7570   4.070   3.301   5.067
   70SLPC   C38 7571   4.062   3.355   4.861
   70SLPC   H8X 7572   4.162   3.311   4.843
   70SLPC   H8Y 7573   4.077   3.462   4.889
   70SLPC   C39 7574   3.979   3.348   4.731
   70SLPC   H9X 7575   3.878   3.392   4.749
   70SLPC   H9Y 7576   3.965   3.242   4.701
   70SLPC  C310 7577   4.046   3.427   4.618
   70SLPC  H10X 7578   4.058   3.529   4.657
   70SLPC  H10Y 7579   3.983   3.428   4.527
   70SLPC  C311 7580   4.186   3.375   4.584
   70SLPC  H11X 7581   4.175   3.267   4.562
   70SLPC  H11Y 7582   4.250   3.386   4.674
   70SLPC  C312 7583   4.262   3.440   4.466
   70SLPC  H12X 7584   4.368   3.453   4.499
   70SLPC  H12Y 7585   4.224   3.542   4.442
   70SLPC  C313 7586   4.266   3.350   4.342
   70SLPC  H13X 7587   4.175   3.366   4.280
   70SLPC  H13Y 7588   4.265   3.244   4.374
   70SLPC  C314 7589   4.394   3.368   4.260
   70SLPC  H14X 7590   4.482   3.350   4.325
   70SLPC  H14Y 7591   4.401   3.473   4.225
   70SLPC  C315 7592   4.398   3.271   4.140
   70SLPC  H15X 7593   4.430   3.327   4.050
   70SLPC  H15Y 7594   4.295   3.232   4.120
   70SLPC  C316 7595   4.496   3.156   4.163
   70SLPC  H16X 7596   4.475   3.073   4.092
   70SLPC  H16Y 7597   4.483   3.116   4.266
   70SLPC  C317 7598   4.640   3.204   4.142
   70SLPC  H17X 7599   4.657   3.299   4.196
   70SLPC  H17Y 7600   4.652   3.225   4.034
   70SLPC  C318 7601   4.744   3.102   4.188
   70SLPC  H18X 7602   4.741   3.092   4.298
   70SLPC  H18Y 7603   4.846   3.135   4.158
   70SLPC  H18Z 7604   4.723   3.003   4.142
   71SLPC     N 7605   5.090   0.878   5.666
   71SLPC   C13 7606   5.011   0.896   5.792
   71SLPC  H13A 7607   4.935   0.820   5.798
   71SLPC  H13B 7608   5.078   0.886   5.877
   71SLPC  H13C 7609   4.962   0.993   5.793
   71SLPC   C14 7610   5.204   0.975   5.672
   71SLPC  H14A 7611   5.276   0.946   5.751
   71SLPC  H14B 7612   5.260   0.975   5.580
   71SLPC  H14C 7613   5.169   1.075   5.694
   71SLPC   C15 7614   5.003   0.907   5.549
   71SLPC  H15A 7615   4.915   0.841   5.545
   71SLPC  H15B 7616   4.964   1.007   5.558
   71SLPC  H15C 7617   5.058   0.897   5.456
   71SLPC   C12 7618   5.140   0.737   5.650
   71SLPC  H12A 7619   5.232   0.740   5.591
   71SLPC  H12B 7620   5.069   0.680   5.592
   71SLPC   C11 7621   5.173   0.655   5.775
   71SLPC  H11A 7622   5.196   0.549   5.746
   71SLPC  H11B 7623   5.086   0.648   5.844
   71SLPC     P 7624   5.426   0.713   5.767
   71SLPC   O13 7625   5.459   0.855   5.747
   71SLPC   O14 7626   5.509   0.621   5.847
   71SLPC   O12 7627   5.283   0.714   5.840
   71SLPC   O11 7628   5.395   0.648   5.623
   71SLPC    C1 7629   5.488   0.554   5.566
   71SLPC    HA 7630   5.547   0.502   5.646
   71SLPC    HB 7631   5.432   0.473   5.515
   71SLPC    C2 7632   5.591   0.612   5.463
   71SLPC    HS 7633   5.691   0.574   5.494
   71SLPC   O21 7634   5.590   0.756   5.466
   71SLPC   C21 7635   5.695   0.810   5.407
   71SLPC   O22 7636   5.781   0.748   5.345
   71SLPC   C22 7637   5.697   0.960   5.433
   71SLPC   H2R 7638   5.702   0.973   5.543
   71SLPC   H2S 7639   5.789   1.003   5.388
   71SLPC    C3 7640   5.563   0.560   5.316
   71SLPC    HX 7641   5.609   0.460   5.309
   71SLPC    HY 7642   5.618   0.620   5.240
   71SLPC   O31 7643   5.423   0.546   5.284
   71SLPC   C31 7644   5.369   0.660   5.246
   71SLPC   O32 7645   5.430   0.761   5.218
   71SLPC   C32 7646   5.218   0.647   5.258
   71SLPC   H2X 7647   5.178   0.750   5.268
   71SLPC   H2Y 7648   5.198   0.591   5.352
   71SLPC   C23 7649   5.573   1.035   5.378
   71SLPC   H3R 7650   5.576   1.137   5.422
   71SLPC   H3S 7651   5.480   0.985   5.413
   71SLPC   C24 7652   5.572   1.053   5.225
   71SLPC   H4R 7653   5.563   0.955   5.174
   71SLPC   H4S 7654   5.669   1.098   5.194
   71SLPC   C25 7655   5.460   1.147   5.178
   71SLPC   H5R 7656   5.477   1.177   5.073
   71SLPC   H5S 7657   5.469   1.240   5.239
   71SLPC   C26 7658   5.315   1.096   5.196
   71SLPC   H6R 7659   5.249   1.185   5.191
   71SLPC   H6S 7660   5.305   1.052   5.298
   71SLPC   C27 7661   5.260   0.995   5.093
   71SLPC   H7R 7662   5.160   0.962   5.130
   71SLPC   H7S 7663   5.323   0.905   5.088
   71SLPC   C28 7664   5.242   1.048   4.950
   71SLPC   H8R 7665   5.205   1.153   4.953
   71SLPC   H8S 7666   5.163   0.991   4.899
   71SLPC   C29 7667   5.367   1.040   4.867
   71SLPC   H9R 7668   5.427   1.131   4.871
   71SLPC  C210 7669   5.425   0.933   4.812
   71SLPC  H10R 7670   5.515   0.947   4.750
   71SLPC  C211 7671   5.376   0.792   4.820
   71SLPC  H11R 7672   5.362   0.753   4.717
   71SLPC  H11S 7673   5.278   0.787   4.870
   71SLPC  C212 7674   5.477   0.711   4.900
   71SLPC  H12R 7675   5.528   0.766   4.982
   71SLPC  C213 7676   5.502   0.580   4.885
   71SLPC  H13R 7677   5.577   0.532   4.949
   71SLPC  C214 7678   5.431   0.492   4.786
   71SLPC  H14R 7679   5.347   0.549   4.744
   71SLPC  H14S 7680   5.384   0.407   4.839
   71SLPC  C215 7681   5.508   0.438   4.664
   71SLPC  H15R 7682   5.475   0.332   4.649
   71SLPC  H15S 7683   5.617   0.435   4.681
   71SLPC  C216 7684   5.474   0.514   4.534
   71SLPC  H16R 7685   5.535   0.605   4.527
   71SLPC  H16S 7686   5.369   0.549   4.535
   71SLPC  C217 7687   5.497   0.429   4.409
   71SLPC  H17R 7688   5.419   0.351   4.402
   71SLPC  H17S 7689   5.594   0.378   4.421
   71SLPC  C218 7690   5.502   0.512   4.280
   71SLPC  H18R 7691   5.495   0.445   4.191
   71SLPC  H18S 7692   5.598   0.568   4.274
   71SLPC  H18T 7693   5.418   0.584   4.276
   71SLPC   C33 7694   5.146   0.574   5.141
   71SLPC   H3X 7695   5.169   0.466   5.142
   71SLPC   H3Y 7696   5.181   0.615   5.044
   71SLPC   C34 7697   4.998   0.604   5.164
   71SLPC   H4X 7698   4.984   0.714   5.147
   71SLPC   H4Y 7699   4.976   0.592   5.272
   71SLPC   C35 7700   4.884   0.529   5.092
   71SLPC   H5X 7701   4.834   0.619   5.053
   71SLPC   H5Y 7702   4.812   0.485   5.163
   71SLPC   C36 7703   4.892   0.440   4.966
   71SLPC   H6X 7704   4.878   0.333   4.992
   71SLPC   H6Y 7705   4.988   0.450   4.916
   71SLPC   C37 7706   4.774   0.488   4.876
   71SLPC   H7X 7707   4.789   0.598   4.869
   71SLPC   H7Y 7708   4.677   0.471   4.928
   71SLPC   C38 7709   4.762   0.450   4.728
   71SLPC   H8X 7710   4.722   0.348   4.712
   71SLPC   H8Y 7711   4.865   0.449   4.687
   71SLPC   C39 7712   4.680   0.558   4.653
   71SLPC   H9X 7713   4.695   0.655   4.704
   71SLPC   H9Y 7714   4.571   0.537   4.661
   71SLPC  C310 7715   4.723   0.582   4.507
   71SLPC  H10X 7716   4.648   0.542   4.436
   71SLPC  H10Y 7717   4.815   0.521   4.494
   71SLPC  C311 7718   4.761   0.728   4.470
   71SLPC  H11X 7719   4.760   0.795   4.558
   71SLPC  H11Y 7720   4.691   0.768   4.396
   71SLPC  C312 7721   4.899   0.728   4.406
   71SLPC  H12X 7722   4.902   0.648   4.330
   71SLPC  H12Y 7723   4.965   0.704   4.491
   71SLPC  C313 7724   4.965   0.852   4.347
   71SLPC  H13X 7725   4.967   0.933   4.424
   71SLPC  H13Y 7726   4.912   0.888   4.257
   71SLPC  C314 7727   5.108   0.805   4.312
   71SLPC  H14X 7728   5.097   0.716   4.246
   71SLPC  H14Y 7729   5.159   0.770   4.404
   71SLPC  C315 7730   5.198   0.904   4.237
   71SLPC  H15X 7731   5.138   0.984   4.189
   71SLPC  H15Y 7732   5.248   0.847   4.155
   71SLPC  C316 7733   5.308   0.964   4.325
   71SLPC  H16X 7734   5.307   0.920   4.427
   71SLPC  H16Y 7735   5.288   1.073   4.337
   71SLPC  C317 7736   5.447   0.945   4.264
   71SLPC  H17X 7737   5.446   0.983   4.159
   71SLPC  H17Y 7738   5.472   0.837   4.259
   71SLPC  C318 7739   5.554   1.019   4.345
   71SLPC  H18X 7740   5.519   1.121   4.371
   71SLPC  H18Y 7741   5.648   1.029   4.287
   71SLPC  H18Z 7742   5.576   0.965   4.439
   72SLPC     N 7743   4.655  -0.151   5.706
   72SLPC   C13 7744   4.622  -0.264   5.615
   72SLPC  H13A 7745   4.684  -0.267   5.526
   72SLPC  H13B 7746   4.635  -0.358   5.668
   72SLPC  H13C 7747   4.518  -0.259   5.584
   72SLPC   C14 7748   4.801  -0.155   5.739
   72SLPC  H14A 7749   4.829  -0.244   5.793
   72SLPC  H14B 7750   4.862  -0.146   5.649
   72SLPC  H14C 7751   4.826  -0.066   5.798
   72SLPC   C15 7752   4.575  -0.163   5.832
   72SLPC  H15A 7753   4.593  -0.257   5.883
   72SLPC  H15B 7754   4.603  -0.082   5.900
   72SLPC  H15C 7755   4.470  -0.153   5.813
   72SLPC   C12 7756   4.627  -0.015   5.646
   72SLPC  H12A 7757   4.537  -0.018   5.588
   72SLPC  H12B 7758   4.710   0.011   5.581
   72SLPC   C11 7759   4.612   0.105   5.745
   72SLPC  H11A 7760   4.520   0.095   5.808
   72SLPC  H11B 7761   4.593   0.193   5.680
   72SLPC     P 7762   4.848   0.208   5.778
   72SLPC   O13 7763   4.942   0.242   5.889
   72SLPC   O14 7764   4.904   0.136   5.662
   72SLPC   O12 7765   4.726   0.123   5.831
   72SLPC   O11 7766   4.780   0.342   5.727
   72SLPC    C1 7767   4.704   0.422   5.817
   72SLPC    HA 7768   4.613   0.367   5.850
   72SLPC    HB 7769   4.765   0.446   5.907
   72SLPC    C2 7770   4.660   0.558   5.752
   72SLPC    HS 7771   4.581   0.604   5.816
   72SLPC   O21 7772   4.613   0.549   5.617
   72SLPC   C21 7773   4.525   0.459   5.581
   72SLPC   O22 7774   4.463   0.384   5.655
   72SLPC   C22 7775   4.498   0.473   5.429
   72SLPC   H2R 7776   4.551   0.391   5.377
   72SLPC   H2S 7777   4.390   0.455   5.417
   72SLPC    C3 7778   4.782   0.653   5.748
   72SLPC    HX 7779   4.807   0.681   5.853
   72SLPC    HY 7780   4.755   0.749   5.696
   72SLPC   O31 7781   4.896   0.585   5.688
   72SLPC   C31 7782   4.883   0.573   5.555
   72SLPC   O32 7783   4.842   0.663   5.483
   72SLPC   C32 7784   4.941   0.443   5.499
   72SLPC   H2X 7785   4.981   0.379   5.581
   72SLPC   H2Y 7786   5.026   0.470   5.434
   72SLPC   C23 7787   4.534   0.611   5.365
   72SLPC   H3R 7788   4.643   0.616   5.347
   72SLPC   H3S 7789   4.507   0.695   5.434
   72SLPC   C24 7790   4.462   0.636   5.232
   72SLPC   H4R 7791   4.352   0.632   5.250
   72SLPC   H4S 7792   4.486   0.554   5.160
   72SLPC   C25 7793   4.491   0.772   5.165
   72SLPC   H5R 7794   4.473   0.856   5.235
   72SLPC   H5S 7795   4.416   0.781   5.083
   72SLPC   C26 7796   4.630   0.780   5.101
   72SLPC   H6R 7797   4.663   0.674   5.106
   72SLPC   H6S 7798   4.699   0.843   5.162
   72SLPC   C27 7799   4.629   0.820   4.952
   72SLPC   H7R 7800   4.545   0.891   4.941
   72SLPC   H7S 7801   4.604   0.730   4.892
   72SLPC   C28 7802   4.752   0.894   4.893
   72SLPC   H8R 7803   4.736   0.999   4.924
   72SLPC   H8S 7804   4.744   0.894   4.782
   72SLPC   C29 7805   4.891   0.860   4.938
   72SLPC   H9R 7806   4.910   0.897   5.040
   72SLPC  C210 7807   4.994   0.797   4.876
   72SLPC  H10R 7808   5.085   0.790   4.938
   72SLPC  C211 7809   5.010   0.734   4.738
   72SLPC  H11R 7810   5.065   0.805   4.671
   72SLPC  H11S 7811   4.910   0.718   4.695
   72SLPC  C212 7812   5.087   0.602   4.748
   72SLPC  H12R 7813   5.127   0.588   4.850
   72SLPC  C213 7814   5.120   0.500   4.665
   72SLPC  H13R 7815   5.176   0.417   4.713
   72SLPC  C214 7816   5.100   0.466   4.518
   72SLPC  H14R 7817   5.199   0.460   4.469
   72SLPC  H14S 7818   5.049   0.544   4.462
   72SLPC  C215 7819   5.032   0.331   4.485
   72SLPC  H15R 7820   4.962   0.301   4.566
   72SLPC  H15S 7821   5.113   0.254   4.482
   72SLPC  C216 7822   4.955   0.325   4.351
   72SLPC  H16R 7823   4.853   0.365   4.365
   72SLPC  H16S 7824   4.943   0.218   4.322
   72SLPC  C217 7825   5.020   0.401   4.233
   72SLPC  H17R 7826   5.032   0.508   4.259
   72SLPC  H17S 7827   4.949   0.398   4.147
   72SLPC  C218 7828   5.156   0.348   4.190
   72SLPC  H18R 7829   5.201   0.414   4.113
   72SLPC  H18S 7830   5.146   0.247   4.146
   72SLPC  H18T 7831   5.225   0.342   4.276
   72SLPC   C33 7832   4.831   0.371   5.417
   72SLPC   H3X 7833   4.768   0.448   5.367
   72SLPC   H3Y 7834   4.764   0.312   5.484
   72SLPC   C34 7835   4.880   0.282   5.302
   72SLPC   H4X 7836   4.959   0.337   5.247
   72SLPC   H4Y 7837   4.799   0.259   5.228
   72SLPC   C35 7838   4.943   0.153   5.349
   72SLPC   H5X 7839   4.985   0.173   5.449
   72SLPC   H5Y 7840   5.026   0.132   5.279
   72SLPC   C36 7841   4.852   0.031   5.358
   72SLPC   H6X 7842   4.750   0.064   5.389
   72SLPC   H6Y 7843   4.892  -0.035   5.437
   72SLPC   C37 7844   4.846  -0.043   5.223
   72SLPC   H7X 7845   4.948  -0.070   5.189
   72SLPC   H7Y 7846   4.803   0.029   5.150
   72SLPC   C38 7847   4.762  -0.170   5.232
   72SLPC   H8X 7848   4.684  -0.151   5.310
   72SLPC   H8Y 7849   4.827  -0.252   5.269
   72SLPC   C39 7850   4.695  -0.215   5.101
   72SLPC   H9X 7851   4.634  -0.305   5.122
   72SLPC   H9Y 7852   4.775  -0.246   5.030
   72SLPC  C310 7853   4.607  -0.112   5.027
   72SLPC  H10X 7854   4.541  -0.167   4.957
   72SLPC  H10Y 7855   4.675  -0.049   4.966
   72SLPC  C311 7856   4.519  -0.018   5.113
   72SLPC  H11X 7857   4.583   0.049   5.174
   72SLPC  H11Y 7858   4.458  -0.078   5.183
   72SLPC  C312 7859   4.419   0.065   5.030
   72SLPC  H12X 7860   4.357   0.129   5.097
   72SLPC  H12Y 7861   4.351  -0.007   4.979
   72SLPC  C313 7862   4.485   0.154   4.924
   72SLPC  H13X 7863   4.576   0.106   4.884
   72SLPC  H13Y 7864   4.517   0.251   4.968
   72SLPC  C314 7865   4.393   0.176   4.803
   72SLPC  H14X 7866   4.308   0.243   4.829
   72SLPC  H14Y 7867   4.351   0.078   4.771
   72SLPC  C315 7868   4.471   0.233   4.684
   72SLPC  H15X 7869   4.566   0.176   4.669
   72SLPC  H15Y 7870   4.498   0.338   4.710
   72SLPC  C316 7871   4.391   0.230   4.555
   72SLPC  H16X 7872   4.284   0.253   4.578
   72SLPC  H16Y 7873   4.394   0.127   4.510
   72SLPC  C317 7874   4.440   0.332   4.453
   72SLPC  H17X 7875   4.536   0.298   4.408
   72SLPC  H17Y 7876   4.460   0.428   4.507
   72SLPC  C318 7877   4.335   0.361   4.346
   72SLPC  H18X 7878   4.245   0.405   4.394
   72SLPC  H18Y 7879   4.306   0.268   4.292
   72SLPC  H18Z 7880   4.374   0.435   4.273
   73SLPC     N 7881   3.602   3.412   2.108
   73SLPC   C13 7882   3.520   3.431   2.232
   73SLPC  H13A 7883   3.566   3.377   2.316
   73SLPC  H13B 7884   3.512   3.534   2.264
   73SLPC  H13C 7885   3.420   3.390   2.220
   73SLPC   C14 7886   3.737   3.473   2.129
   73SLPC  H14A 7887   3.728   3.578   2.151
   73SLPC  H14B 7888   3.787   3.426   2.215
   73SLPC  H14C 7889   3.803   3.458   2.045
   73SLPC   C15 7890   3.532   3.474   1.993
   73SLPC  H15A 7891   3.595   3.478   1.905
   73SLPC  H15B 7892   3.443   3.415   1.966
   73SLPC  H15C 7893   3.496   3.573   2.020
   73SLPC   C12 7894   3.616   3.262   2.083
   73SLPC  H12A 7895   3.648   3.247   1.980
   73SLPC  H12B 7896   3.517   3.217   2.090
   73SLPC   C11 7897   3.709   3.181   2.175
   73SLPC  H11A 7898   3.815   3.214   2.157
   73SLPC  H11B 7899   3.705   3.075   2.144
   73SLPC     P 7900   3.763   3.243   2.425
   73SLPC   O13 7901   3.775   3.138   2.526
   73SLPC   O14 7902   3.884   3.299   2.359
   73SLPC   O12 7903   3.667   3.191   2.311
   73SLPC   O11 7904   3.675   3.363   2.480
   73SLPC    C1 7905   3.737   3.488   2.511
   73SLPC    HA 7906   3.771   3.540   2.419
   73SLPC    HB 7907   3.661   3.553   2.559
   73SLPC    C2 7908   3.859   3.479   2.609
   73SLPC    HS 7909   3.946   3.441   2.549
   73SLPC   O21 7910   3.830   3.391   2.717
   73SLPC   C21 7911   3.936   3.364   2.789
   73SLPC   O22 7912   4.052   3.380   2.758
   73SLPC   C22 7913   3.893   3.318   2.926
   73SLPC   H2R 7914   3.788   3.350   2.945
   73SLPC   H2S 7915   3.897   3.207   2.925
   73SLPC    C3 7916   3.894   3.619   2.664
   73SLPC    HX 7917   3.915   3.679   2.574
   73SLPC    HY 7918   3.985   3.618   2.728
   73SLPC   O31 7919   3.783   3.672   2.736
   73SLPC   C31 7920   3.775   3.803   2.745
   73SLPC   O32 7921   3.853   3.885   2.700
   73SLPC   C32 7922   3.656   3.834   2.834
   73SLPC   H2X 7923   3.590   3.745   2.842
   73SLPC   H2Y 7924   3.599   3.917   2.786
   73SLPC   C23 7925   3.989   3.376   3.032
   73SLPC   H3R 7926   3.956   3.479   3.061
   73SLPC   H3S 7927   4.093   3.383   2.994
   73SLPC   C24 7928   3.994   3.285   3.153
   73SLPC   H4R 7929   4.063   3.327   3.230
   73SLPC   H4S 7930   4.035   3.187   3.122
   73SLPC   C25 7931   3.857   3.261   3.213
   73SLPC   H5R 7932   3.782   3.230   3.137
   73SLPC   H5S 7933   3.823   3.358   3.255
   73SLPC   C26 7934   3.865   3.152   3.319
   73SLPC   H6R 7935   3.938   3.184   3.395
   73SLPC   H6S 7936   3.907   3.060   3.273
   73SLPC   C27 7937   3.728   3.118   3.378
   73SLPC   H7R 7938   3.739   3.037   3.454
   73SLPC   H7S 7939   3.671   3.077   3.292
   73SLPC   C28 7940   3.647   3.236   3.436
   73SLPC   H8R 7941   3.691   3.329   3.398
   73SLPC   H8S 7942   3.666   3.240   3.546
   73SLPC   C29 7943   3.499   3.237   3.406
   73SLPC   H9R 7944   3.440   3.165   3.463
   73SLPC  C210 7945   3.438   3.305   3.307
   73SLPC  H10R 7946   3.328   3.298   3.299
   73SLPC  C211 7947   3.504   3.394   3.205
   73SLPC  H11R 7948   3.499   3.343   3.107
   73SLPC  H11S 7949   3.613   3.401   3.223
   73SLPC  C212 7950   3.447   3.532   3.188
   73SLPC  H12R 7951   3.367   3.543   3.113
   73SLPC  C213 7952   3.489   3.641   3.255
   73SLPC  H13R 7953   3.440   3.739   3.238
   73SLPC  C214 7954   3.599   3.641   3.357
   73SLPC  H14R 7955   3.655   3.736   3.355
   73SLPC  H14S 7956   3.675   3.563   3.334
   73SLPC  C215 7957   3.549   3.618   3.500
   73SLPC  H15R 7958   3.467   3.543   3.501
   73SLPC  H15S 7959   3.509   3.713   3.542
   73SLPC  C216 7960   3.662   3.563   3.587
   73SLPC  H16R 7961   3.749   3.631   3.584
   73SLPC  H16S 7962   3.696   3.468   3.544
   73SLPC  C217 7963   3.625   3.541   3.733
   73SLPC  H17R 7964   3.580   3.635   3.770
   73SLPC  H17S 7965   3.717   3.526   3.791
   73SLPC  C218 7966   3.534   3.420   3.754
   73SLPC  H18R 7967   3.581   3.328   3.715
   73SLPC  H18S 7968   3.437   3.434   3.701
   73SLPC  H18T 7969   3.514   3.404   3.862
   73SLPC   C33 7970   3.708   3.877   2.971
   73SLPC   H3X 7971   3.621   3.900   3.037
   73SLPC   H3Y 7972   3.767   3.971   2.957
   73SLPC   C34 7973   3.799   3.775   3.041
   73SLPC   H4X 7974   3.885   3.746   2.976
   73SLPC   H4Y 7975   3.740   3.683   3.064
   73SLPC   C35 7976   3.856   3.835   3.170
   73SLPC   H5X 7977   3.769   3.879   3.222
   73SLPC   H5Y 7978   3.927   3.917   3.150
   73SLPC   C36 7979   3.915   3.733   3.268
   73SLPC   H6X 7980   3.871   3.634   3.247
   73SLPC   H6Y 7981   3.880   3.766   3.369
   73SLPC   C37 7982   4.068   3.723   3.275
   73SLPC   H7X 7983   4.112   3.826   3.275
   73SLPC   H7Y 7984   4.105   3.671   3.184
   73SLPC   C38 7985   4.115   3.649   3.402
   73SLPC   H8X 7986   4.127   3.722   3.486
   73SLPC   H8Y 7987   4.214   3.602   3.384
   73SLPC   C39 7988   4.014   3.542   3.447
   73SLPC   H9X 7989   3.987   3.480   3.359
   73SLPC   H9Y 7990   3.922   3.593   3.482
   73SLPC  C310 7991   4.056   3.447   3.560
   73SLPC  H10X 7992   4.092   3.504   3.647
   73SLPC  H10Y 7993   4.137   3.382   3.521
   73SLPC  C311 7994   3.933   3.362   3.600
   73SLPC  H11X 7995   3.875   3.354   3.506
   73SLPC  H11Y 7996   3.869   3.419   3.669
   73SLPC  C312 7997   3.957   3.218   3.647
   73SLPC  H12X 7998   4.053   3.184   3.603
   73SLPC  H12Y 7999   3.878   3.154   3.603
   73SLPC  C313 8000   3.951   3.190   3.798
   73SLPC  H13X 8001   4.028   3.250   3.850
   73SLPC  H13Y 8002   3.977   3.083   3.814
   73SLPC  C314 8003   3.813   3.218   3.860
   73SLPC  H14X 8004   3.743   3.139   3.827
   73SLPC  H14Y 8005   3.776   3.314   3.819
   73SLPC  C315 8006   3.814   3.233   4.013
   73SLPC  H15X 8007   3.916   3.260   4.045
   73SLPC  H15Y 8008   3.789   3.135   4.060
   73SLPC  C316 8009   3.716   3.342   4.062
   73SLPC  H16X 8010   3.613   3.305   4.046
   73SLPC  H16Y 8011   3.728   3.434   4.000
   73SLPC  C317 8012   3.736   3.385   4.209
   73SLPC  H17X 8013   3.639   3.420   4.249
   73SLPC  H17Y 8014   3.805   3.471   4.212
   73SLPC  C318 8015   3.791   3.275   4.298
   73SLPC  H18X 8016   3.788   3.304   4.405
   73SLPC  H18Y 8017   3.897   3.252   4.272
   73SLPC  H18Z 8018   3.731   3.183   4.284
   74SLPC     N 8019   2.395   0.735   2.148
   74SLPC   C13 8020   2.531   0.716   2.089
   74SLPC  H13A 8021   2.527   0.722   1.980
   74SLPC  H13B 8022   2.604   0.790   2.122
   74SLPC  H13C 8023   2.568   0.617   2.114
   74SLPC   C14 8024   2.309   0.634   2.078
   74SLPC  H14A 8025   2.320   0.641   1.971
   74SLPC  H14B 8026   2.347   0.534   2.106
   74SLPC  H14C 8027   2.206   0.637   2.108
   74SLPC   C15 8028   2.352   0.875   2.121
   74SLPC  H15A 8029   2.255   0.895   2.163
   74SLPC  H15B 8030   2.420   0.948   2.165
   74SLPC  H15C 8031   2.350   0.893   2.015
   74SLPC   C12 8032   2.396   0.706   2.298
   74SLPC  H12A 8033   2.340   0.780   2.354
   74SLPC  H12B 8034   2.499   0.716   2.332
   74SLPC   C11 8035   2.353   0.565   2.342
   74SLPC  H11A 8036   2.251   0.538   2.308
   74SLPC  H11B 8037   2.348   0.560   2.453
   74SLPC     P 8038   2.570   0.432   2.379
   74SLPC   O13 8039   2.516   0.359   2.496
   74SLPC   O14 8040   2.672   0.369   2.294
   74SLPC   O12 8041   2.447   0.472   2.287
   74SLPC   O11 8042   2.617   0.577   2.422
   74SLPC    C1 8043   2.715   0.657   2.355
   74SLPC    HA 8044   2.754   0.607   2.263
   74SLPC    HB 8045   2.671   0.754   2.323
   74SLPC    C2 8046   2.838   0.693   2.444
   74SLPC    HS 8047   2.906   0.759   2.386
   74SLPC   O21 8048   2.899   0.565   2.463
   74SLPC   C21 8049   2.930   0.517   2.578
   74SLPC   O22 8050   2.989   0.573   2.669
   74SLPC   C22 8051   2.883   0.371   2.579
   74SLPC   H2R 8052   2.842   0.346   2.479
   74SLPC   H2S 8053   2.966   0.300   2.592
   74SLPC    C3 8054   2.798   0.769   2.577
   74SLPC    HX 8055   2.757   0.867   2.542
   74SLPC    HY 8056   2.890   0.790   2.635
   74SLPC   O31 8057   2.698   0.702   2.658
   74SLPC   C31 8058   2.652   0.775   2.760
   74SLPC   O32 8059   2.698   0.883   2.795
   74SLPC   C32 8060   2.527   0.710   2.823
   74SLPC   H2X 8061   2.469   0.790   2.873
   74SLPC   H2Y 8062   2.565   0.643   2.903
   74SLPC   C23 8063   2.777   0.345   2.687
   74SLPC   H3R 8064   2.752   0.236   2.681
   74SLPC   H3S 8065   2.684   0.400   2.660
   74SLPC   C24 8066   2.813   0.382   2.831
   74SLPC   H4R 8067   2.805   0.493   2.843
   74SLPC   H4S 8068   2.917   0.353   2.856
   74SLPC   C25 8069   2.716   0.311   2.925
   74SLPC   H5R 8070   2.756   0.213   2.957
   74SLPC   H5S 8071   2.628   0.293   2.858
   74SLPC   C26 8072   2.657   0.389   3.042
   74SLPC   H6R 8073   2.640   0.493   3.009
   74SLPC   H6S 8074   2.725   0.392   3.129
   74SLPC   C27 8075   2.518   0.332   3.079
   74SLPC   H7R 8076   2.466   0.301   2.985
   74SLPC   H7S 8077   2.456   0.413   3.121
   74SLPC   C28 8078   2.520   0.209   3.171
   74SLPC   H8R 8079   2.597   0.141   3.131
   74SLPC   H8S 8080   2.421   0.158   3.162
   74SLPC   C29 8081   2.552   0.240   3.314
   74SLPC   H9R 8082   2.653   0.283   3.329
   74SLPC  C210 8083   2.472   0.226   3.421
   74SLPC  H10R 8084   2.514   0.256   3.518
   74SLPC  C211 8085   2.329   0.177   3.425
   74SLPC  H11R 8086   2.314   0.098   3.348
   74SLPC  H11S 8087   2.261   0.260   3.396
   74SLPC  C212 8088   2.284   0.123   3.560
   74SLPC  H12R 8089   2.239   0.023   3.555
   74SLPC  C213 8090   2.293   0.182   3.681
   74SLPC  H13R 8091   2.257   0.126   3.768
   74SLPC  C214 8092   2.353   0.317   3.714
   74SLPC  H14R 8093   2.373   0.375   3.622
   74SLPC  H14S 8094   2.450   0.304   3.765
   74SLPC  C215 8095   2.264   0.408   3.802
   74SLPC  H15R 8096   2.261   0.369   3.906
   74SLPC  H15S 8097   2.160   0.406   3.762
   74SLPC  C216 8098   2.310   0.555   3.801
   74SLPC  H16R 8099   2.239   0.615   3.861
   74SLPC  H16S 8100   2.306   0.593   3.696
   74SLPC  C217 8101   2.453   0.581   3.853
   74SLPC  H17R 8102   2.474   0.690   3.841
   74SLPC  H17S 8103   2.526   0.527   3.790
   74SLPC  C218 8104   2.473   0.545   4.000
   74SLPC  H18R 8105   2.569   0.586   4.038
   74SLPC  H18S 8106   2.473   0.435   4.015
   74SLPC  H18T 8107   2.392   0.588   4.062
   74SLPC   C33 8108   2.435   0.629   2.728
   74SLPC   H3X 8109   2.500   0.575   2.654
   74SLPC   H3Y 8110   2.369   0.695   2.669
   74SLPC   C34 8111   2.353   0.518   2.797
   74SLPC   H4X 8112   2.409   0.476   2.883
   74SLPC   H4Y 8113   2.343   0.436   2.722
   74SLPC   C35 8114   2.209   0.556   2.841
   74SLPC   H5X 8115   2.146   0.465   2.834
   74SLPC   H5Y 8116   2.169   0.630   2.769
   74SLPC   C36 8117   2.198   0.611   2.985
   74SLPC   H6X 8118   2.115   0.685   2.987
   74SLPC   H6Y 8119   2.292   0.664   3.010
   74SLPC   C37 8120   2.166   0.503   3.091
   74SLPC   H7X 8121   2.244   0.424   3.090
   74SLPC   H7Y 8122   2.071   0.453   3.060
   74SLPC   C38 8123   2.145   0.556   3.235
   74SLPC   H8X 8124   2.121   0.470   3.302
   74SLPC   H8Y 8125   2.056   0.622   3.233
   74SLPC   C39 8126   2.262   0.636   3.296
   74SLPC   H9X 8127   2.220   0.706   3.372
   74SLPC   H9Y 8128   2.309   0.697   3.217
   74SLPC  C310 8129   2.368   0.550   3.367
   74SLPC  H10X 8130   2.404   0.475   3.296
   74SLPC  H10Y 8131   2.321   0.495   3.451
   74SLPC  C311 8132   2.490   0.628   3.419
   74SLPC  H11X 8133   2.471   0.664   3.522
   74SLPC  H11Y 8134   2.508   0.716   3.355
   74SLPC  C312 8135   2.621   0.548   3.415
   74SLPC  H12X 8136   2.642   0.515   3.311
   74SLPC  H12Y 8137   2.606   0.458   3.478
   74SLPC  C313 8138   2.741   0.627   3.468
   74SLPC  H13X 8139   2.716   0.664   3.569
   74SLPC  H13Y 8140   2.758   0.716   3.403
   74SLPC  C314 8141   2.872   0.547   3.473
   74SLPC  H14X 8142   2.946   0.612   3.525
   74SLPC  H14Y 8143   2.910   0.528   3.371
   74SLPC  C315 8144   2.866   0.414   3.550
   74SLPC  H15X 8145   2.969   0.376   3.568
   74SLPC  H15Y 8146   2.813   0.336   3.489
   74SLPC  C316 8147   2.795   0.431   3.683
   74SLPC  H16X 8148   2.686   0.412   3.667
   74SLPC  H16Y 8149   2.806   0.536   3.719
   74SLPC  C317 8150   2.844   0.341   3.795
   74SLPC  H17X 8151   2.932   0.388   3.844
   74SLPC  H17Y 8152   2.878   0.242   3.759
   74SLPC  C318 8153   2.730   0.325   3.895
   74SLPC  H18X 8154   2.692   0.425   3.921
   74SLPC  H18Y 8155   2.764   0.274   3.987
   74SLPC  H18Z 8156   2.646   0.269   3.850
   75SLPC     N 8157   5.140   1.364   2.182
   75SLPC   C13 8158   5.162   1.343   2.329
   75SLPC  H13A 8159   5.266   1.365   2.354
   75SLPC  H13B 8160   5.103   1.414   2.386
   75SLPC  H13C 8161   5.136   1.243   2.359
   75SLPC   C14 8162   4.994   1.347   2.155
   75SLPC  H14A 8163   4.964   1.245   2.175
   75SLPC  H14B 8164   4.933   1.410   2.218
   75SLPC  H14C 8165   4.970   1.369   2.051
   75SLPC   C15 8166   5.217   1.261   2.103
   75SLPC  H15A 8167   5.199   1.270   1.996
   75SLPC  H15B 8168   5.324   1.271   2.120
   75SLPC  H15C 8169   5.187   1.160   2.128
   75SLPC   C12 8170   5.186   1.506   2.149
   75SLPC  H12A 8171   5.140   1.574   2.220
   75SLPC  H12B 8172   5.151   1.533   2.051
   75SLPC   C11 8173   5.337   1.539   2.158
   75SLPC  H11A 8174   5.354   1.640   2.114
   75SLPC  H11B 8175   5.396   1.468   2.096
   75SLPC     P 8176   5.372   1.660   2.386
   75SLPC   O13 8177   5.451   1.769   2.324
   75SLPC   O14 8178   5.226   1.680   2.406
   75SLPC   O12 8179   5.384   1.531   2.293
   75SLPC   O11 8180   5.442   1.610   2.517
   75SLPC    C1 8181   5.402   1.487   2.574
   75SLPC    HA 8182   5.295   1.463   2.553
   75SLPC    HB 8183   5.465   1.405   2.536
   75SLPC    C2 8184   5.416   1.497   2.727
   75SLPC    HS 8185   5.384   1.399   2.771
   75SLPC   O21 8186   5.337   1.606   2.776
   75SLPC   C21 8187   5.211   1.573   2.797
   75SLPC   O22 8188   5.152   1.477   2.750
   75SLPC   C22 8189   5.156   1.668   2.902
   75SLPC   H2R 8190   5.240   1.726   2.946
   75SLPC   H2S 8191   5.087   1.740   2.855
   75SLPC    C3 8192   5.563   1.522   2.772
   75SLPC    HX 8193   5.601   1.605   2.708
   75SLPC    HY 8194   5.624   1.433   2.749
   75SLPC   O31 8195   5.583   1.559   2.910
   75SLPC   C31 8196   5.500   1.522   3.007
   75SLPC   O32 8197   5.398   1.457   2.998
   75SLPC   C32 8198   5.559   1.565   3.141
   75SLPC   H2X 8199   5.603   1.666   3.130
   75SLPC   H2Y 8200   5.638   1.493   3.169
   75SLPC   C23 8201   5.090   1.591   3.019
   75SLPC   H3R 8202   5.154   1.506   3.051
   75SLPC   H3S 8203   4.991   1.550   2.991
   75SLPC   C24 8204   5.074   1.687   3.136
   75SLPC   H4R 8205   5.022   1.777   3.097
   75SLPC   H4S 8206   5.175   1.716   3.173
   75SLPC   C25 8207   4.992   1.636   3.254
   75SLPC   H5R 8208   4.975   1.527   3.247
   75SLPC   H5S 8209   4.893   1.686   3.246
   75SLPC   C26 8210   5.056   1.672   3.389
   75SLPC   H6R 8211   5.098   1.775   3.387
   75SLPC   H6S 8212   5.139   1.602   3.407
   75SLPC   C27 8213   4.954   1.661   3.501
   75SLPC   H7R 8214   4.908   1.560   3.493
   75SLPC   H7S 8215   4.876   1.739   3.488
   75SLPC   C28 8216   5.011   1.674   3.643
   75SLPC   H8R 8217   5.100   1.608   3.653
   75SLPC   H8S 8218   4.930   1.631   3.706
   75SLPC   C29 8219   5.035   1.814   3.691
   75SLPC   H9R 8220   4.953   1.884   3.672
   75SLPC  C210 8221   5.142   1.856   3.760
   75SLPC  H10R 8222   5.146   1.960   3.795
   75SLPC  C211 8223   5.259   1.771   3.802
   75SLPC  H11R 8224   5.346   1.840   3.806
   75SLPC  H11S 8225   5.287   1.697   3.723
   75SLPC  C212 8226   5.253   1.703   3.936
   75SLPC  H12R 8227   5.350   1.703   3.987
   75SLPC  C213 8228   5.153   1.644   4.006
   75SLPC  H13R 8229   5.180   1.609   4.106
   75SLPC  C214 8230   5.007   1.618   3.980
   75SLPC  H14R 8231   4.982   1.541   4.054
   75SLPC  H14S 8232   4.994   1.568   3.883
   75SLPC  C215 8233   4.900   1.728   4.001
   75SLPC  H15R 8234   4.855   1.751   3.902
   75SLPC  H15S 8235   4.950   1.820   4.035
   75SLPC  C216 8236   4.781   1.689   4.094
   75SLPC  H16R 8237   4.723   1.612   4.038
   75SLPC  H16S 8238   4.715   1.777   4.106
   75SLPC  C217 8239   4.811   1.631   4.234
   75SLPC  H17R 8240   4.810   1.713   4.309
   75SLPC  H17S 8241   4.912   1.587   4.237
   75SLPC  C218 8242   4.710   1.523   4.278
   75SLPC  H18R 8243   4.743   1.474   4.372
   75SLPC  H18S 8244   4.701   1.444   4.200
   75SLPC  H18T 8245   4.610   1.568   4.295
   75SLPC   C33 8246   5.450   1.568   3.251
   75SLPC   H3X 8247   5.363   1.629   3.221
   75SLPC   H3Y 8248   5.495   1.617   3.340
   75SLPC   C34 8249   5.402   1.429   3.293
   75SLPC   H4X 8250   5.481   1.352   3.274
   75SLPC   H4Y 8251   5.313   1.400   3.232
   75SLPC   C35 8252   5.367   1.427   3.441
   75SLPC   H5X 8253   5.312   1.520   3.468
   75SLPC   H5Y 8254   5.462   1.429   3.499
   75SLPC   C36 8255   5.281   1.308   3.482
   75SLPC   H6X 8256   5.332   1.212   3.458
   75SLPC   H6Y 8257   5.185   1.312   3.426
   75SLPC   C37 8258   5.252   1.316   3.631
   75SLPC   H7X 8259   5.171   1.245   3.657
   75SLPC   H7Y 8260   5.216   1.419   3.655
   75SLPC   C38 8261   5.373   1.284   3.718
   75SLPC   H8X 8262   5.466   1.331   3.682
   75SLPC   H8Y 8263   5.388   1.173   3.713
   75SLPC   C39 8264   5.349   1.327   3.862
   75SLPC   H9X 8265   5.240   1.317   3.884
   75SLPC   H9Y 8266   5.376   1.434   3.875
   75SLPC  C310 8267   5.427   1.239   3.959
   75SLPC  H10X 8268   5.534   1.270   3.956
   75SLPC  H10Y 8269   5.422   1.133   3.925
   75SLPC  C311 8270   5.372   1.248   4.100
   75SLPC  H11X 8271   5.439   1.193   4.169
   75SLPC  H11Y 8272   5.273   1.197   4.103
   75SLPC  C312 8273   5.356   1.391   4.152
   75SLPC  H12X 8274   5.262   1.431   4.108
   75SLPC  H12Y 8275   5.440   1.454   4.116
   75SLPC  C313 8276   5.350   1.396   4.305
   75SLPC  H13X 8277   5.449   1.368   4.344
   75SLPC  H13Y 8278   5.282   1.316   4.337
   75SLPC  C314 8279   5.306   1.531   4.366
   75SLPC  H14X 8280   5.220   1.508   4.433
   75SLPC  H14Y 8281   5.267   1.599   4.287
   75SLPC  C315 8282   5.411   1.605   4.451
   75SLPC  H15X 8283   5.484   1.534   4.493
   75SLPC  H15Y 8284   5.361   1.652   4.538
   75SLPC  C316 8285   5.490   1.712   4.375
   75SLPC  H16X 8286   5.566   1.755   4.445
   75SLPC  H16Y 8287   5.425   1.795   4.344
   75SLPC  C317 8288   5.562   1.651   4.254
   75SLPC  H17X 8289   5.503   1.671   4.162
   75SLPC  H17Y 8290   5.562   1.541   4.269
   75SLPC  C318 8291   5.709   1.687   4.241
   75SLPC  H18X 8292   5.765   1.609   4.186
   75SLPC  H18Y 8293   5.753   1.699   4.342
   75SLPC  H18Z 8294   5.722   1.783   4.188
   76SLPC     N 8295   0.054   0.349   2.049
   76SLPC   C13 8296  -0.063   0.349   2.142
   76SLPC  H13A 8297  -0.026   0.336   2.244
   76SLPC  H13B 8298  -0.120   0.441   2.139
   76SLPC  H13C 8299  -0.130   0.265   2.123
   76SLPC   C14 8300   0.146   0.462   2.084
   76SLPC  H14A 8301   0.094   0.558   2.087
   76SLPC  H14B 8302   0.192   0.442   2.181
   76SLPC  H14C 8303   0.227   0.469   2.013
   76SLPC   C15 8304  -0.007   0.367   1.913
   76SLPC  H15A 8305  -0.056   0.464   1.906
   76SLPC  H15B 8306   0.068   0.365   1.835
   76SLPC  H15C 8307  -0.080   0.290   1.894
   76SLPC   C12 8308   0.126   0.214   2.054
   76SLPC  H12A 8309   0.180   0.203   1.961
   76SLPC  H12B 8310   0.049   0.137   2.051
   76SLPC   C11 8311   0.226   0.166   2.165
   76SLPC  H11A 8312   0.316   0.127   2.111
   76SLPC  H11B 8313   0.178   0.076   2.211
   76SLPC     P 8314   0.360   0.189   2.381
   76SLPC   O13 8315   0.272   0.118   2.476
   76SLPC   O14 8316   0.463   0.111   2.308
   76SLPC   O12 8317   0.266   0.260   2.268
   76SLPC   O11 8318   0.430   0.310   2.452
   76SLPC    C1 8319   0.411   0.448   2.425
   76SLPC    HA 8320   0.511   0.498   2.428
   76SLPC    HB 8321   0.370   0.467   2.324
   76SLPC    C2 8322   0.320   0.515   2.532
   76SLPC    HS 8323   0.326   0.624   2.519
   76SLPC   O21 8324   0.356   0.482   2.666
   76SLPC   C21 8325   0.478   0.484   2.709
   76SLPC   O22 8326   0.572   0.548   2.664
   76SLPC   C22 8327   0.479   0.399   2.837
   76SLPC   H2R 8328   0.579   0.408   2.883
   76SLPC   H2S 8329   0.404   0.443   2.906
   76SLPC    C3 8330   0.171   0.471   2.520
   76SLPC    HX 8331   0.167   0.360   2.520
   76SLPC    HY 8332   0.133   0.503   2.421
   76SLPC   O31 8333   0.090   0.529   2.624
   76SLPC   C31 8334   0.089   0.458   2.739
   76SLPC   O32 8335   0.135   0.347   2.752
   76SLPC   C32 8336   0.010   0.532   2.846
   76SLPC   H2X 8337  -0.092   0.549   2.807
   76SLPC   H2Y 8338   0.059   0.631   2.859
   76SLPC   C23 8339   0.444   0.250   2.809
   76SLPC   H3R 8340   0.537   0.195   2.785
   76SLPC   H3S 8341   0.381   0.243   2.717
   76SLPC   C24 8342   0.365   0.173   2.917
   76SLPC   H4R 8343   0.369   0.065   2.888
   76SLPC   H4S 8344   0.258   0.203   2.912
   76SLPC   C25 8345   0.409   0.184   3.064
   76SLPC   H5R 8346   0.360   0.272   3.111
   76SLPC   H5S 8347   0.518   0.202   3.072
   76SLPC   C26 8348   0.374   0.058   3.146
   76SLPC   H6R 8349   0.413   0.072   3.249
   76SLPC   H6S 8350   0.424  -0.031   3.102
   76SLPC   C27 8351   0.222   0.036   3.150
   76SLPC   H7R 8352   0.187   0.004   3.049
   76SLPC   H7S 8353   0.174   0.134   3.171
   76SLPC   C28 8354   0.172  -0.068   3.254
   76SLPC   H8R 8355   0.204  -0.168   3.219
   76SLPC   H8S 8356   0.061  -0.067   3.250
   76SLPC   C29 8357   0.217  -0.049   3.397
   76SLPC   H9R 8358   0.277  -0.132   3.437
   76SLPC  C210 8359   0.192   0.055   3.478
   76SLPC  H10R 8360   0.236   0.053   3.579
   76SLPC  C211 8361   0.112   0.180   3.446
   76SLPC  H11R 8362   0.068   0.174   3.345
   76SLPC  H11S 8363   0.182   0.267   3.446
   76SLPC  C212 8364   0.000   0.204   3.544
   76SLPC  H12R 8365  -0.026   0.120   3.610
   76SLPC  C213 8366  -0.069   0.319   3.556
   76SLPC  H13R 8367  -0.144   0.327   3.636
   76SLPC  C214 8368  -0.049   0.445   3.475
   76SLPC  H14R 8369  -0.139   0.465   3.413
   76SLPC  H14S 8370   0.037   0.437   3.405
   76SLPC  C215 8371  -0.027   0.566   3.567
   76SLPC  H15R 8372  -0.119   0.580   3.628
   76SLPC  H15S 8373  -0.016   0.658   3.505
   76SLPC  C216 8374   0.098   0.554   3.658
   76SLPC  H16R 8375   0.187   0.590   3.602
   76SLPC  H16S 8376   0.117   0.447   3.683
   76SLPC  C217 8377   0.087   0.628   3.792
   76SLPC  H17R 8378   0.084   0.737   3.772
   76SLPC  H17S 8379   0.181   0.609   3.849
   76SLPC  C218 8380  -0.032   0.586   3.880
   76SLPC  H18R 8381  -0.026   0.633   3.980
   76SLPC  H18S 8382  -0.033   0.475   3.892
   76SLPC  H18T 8383  -0.128   0.616   3.834
   76SLPC   C33 8384   0.002   0.452   2.977
   76SLPC   H3X 8385  -0.025   0.345   2.958
   76SLPC   H3Y 8386  -0.079   0.496   3.040
   76SLPC   C34 8387   0.131   0.452   3.059
   76SLPC   H4X 8388   0.209   0.393   3.006
   76SLPC   H4Y 8389   0.111   0.400   3.156
   76SLPC   C35 8390   0.183   0.593   3.084
   76SLPC   H5X 8391   0.095   0.659   3.098
   76SLPC   H5Y 8392   0.240   0.627   2.995
   76SLPC   C36 8393   0.268   0.606   3.210
   76SLPC   H6X 8394   0.226   0.538   3.288
   76SLPC   H6Y 8395   0.258   0.710   3.249
   76SLPC   C37 8396   0.417   0.577   3.186
   76SLPC   H7X 8397   0.456   0.648   3.110
   76SLPC   H7Y 8398   0.429   0.475   3.145
   76SLPC   C38 8399   0.498   0.590   3.315
   76SLPC   H8X 8400   0.479   0.689   3.361
   76SLPC   H8Y 8401   0.607   0.584   3.291
   76SLPC   C39 8402   0.463   0.479   3.416
   76SLPC   H9X 8403   0.481   0.380   3.367
   76SLPC   H9Y 8404   0.355   0.484   3.442
   76SLPC  C310 8405   0.543   0.487   3.546
   76SLPC  H10X 8406   0.519   0.582   3.598
   76SLPC  H10Y 8407   0.652   0.486   3.522
   76SLPC  C311 8408   0.511   0.368   3.638
   76SLPC  H11X 8409   0.535   0.274   3.584
   76SLPC  H11Y 8410   0.403   0.367   3.662
   76SLPC  C312 8411   0.594   0.375   3.767
   76SLPC  H12X 8412   0.554   0.454   3.834
   76SLPC  H12Y 8413   0.697   0.406   3.738
   76SLPC  C313 8414   0.606   0.242   3.843
   76SLPC  H13X 8415   0.667   0.262   3.933
   76SLPC  H13Y 8416   0.663   0.169   3.781
   76SLPC  C314 8417   0.474   0.176   3.887
   76SLPC  H14X 8418   0.497   0.096   3.961
   76SLPC  H14Y 8419   0.428   0.127   3.798
   76SLPC  C315 8420   0.374   0.273   3.949
   76SLPC  H15X 8421   0.346   0.350   3.873
   76SLPC  H15Y 8422   0.422   0.326   4.034
   76SLPC  C316 8423   0.244   0.208   3.997
   76SLPC  H16X 8424   0.175   0.291   4.027
   76SLPC  H16Y 8425   0.263   0.146   4.087
   76SLPC  C317 8426   0.174   0.124   3.889
   76SLPC  H17X 8427   0.219   0.023   3.885
   76SLPC  H17Y 8428   0.191   0.173   3.790
   76SLPC  C318 8429   0.023   0.113   3.910
   76SLPC  H18X 8430  -0.021   0.215   3.912
   76SLPC  H18Y 8431  -0.002   0.064   4.006
   76SLPC  H18Z 8432  -0.025   0.056   3.828
   77SAPC     N 8433   3.547   1.372   5.909
   77SAPC   C12 8434   3.637   1.263   5.964
   77SAPC  H12A 8435   3.647   1.185   5.890
   77SAPC  H12B 8436   3.590   1.218   6.052
   77SAPC   C13 8437   3.603   1.420   5.778
   77SAPC  H13A 8438   3.702   1.460   5.792
   77SAPC  H13B 8439   3.601   1.339   5.704
   77SAPC  H13C 8440   3.539   1.496   5.734
   77SAPC   C14 8441   3.408   1.319   5.884
   77SAPC  H14A 8442   3.365   1.271   5.971
   77SAPC  H14B 8443   3.340   1.399   5.856
   77SAPC  H14C 8444   3.408   1.246   5.803
   77SAPC   C15 8445   3.543   1.484   6.008
   77SAPC  H15A 8446   3.504   1.577   5.969
   77SAPC  H15B 8447   3.487   1.455   6.097
   77SAPC  H15C 8448   3.645   1.499   6.045
   77SAPC   C11 8449   3.778   1.306   6.010
   77SAPC  H11A 8450   3.822   1.377   5.936
   77SAPC  H11B 8451   3.844   1.217   6.017
   77SAPC     P 8452   3.894   1.424   6.210
   77SAPC   O13 8453   3.854   1.507   6.327
   77SAPC   O14 8454   3.991   1.316   6.237
   77SAPC   O12 8455   3.765   1.367   6.139
   77SAPC   O11 8456   3.954   1.516   6.096
   77SAPC    C1 8457   4.077   1.584   6.126
   77SAPC    HA 8458   4.052   1.667   6.196
   77SAPC    HB 8459   4.151   1.517   6.177
   77SAPC    C2 8460   4.150   1.645   6.002
   77SAPC    HS 8461   4.207   1.733   6.037
   77SAPC   O21 8462   4.064   1.682   5.894
   77SAPC   C21 8463   3.951   1.748   5.912
   77SAPC   O22 8464   3.911   1.797   6.017
   77SAPC   C22 8465   3.870   1.750   5.782
   77SAPC   H2R 8466   3.766   1.722   5.807
   77SAPC   H2S 8467   3.870   1.855   5.746
   77SAPC    C3 8468   4.259   1.551   5.945
   77SAPC    HX 8469   4.322   1.515   6.029
   77SAPC    HY 8470   4.328   1.607   5.878
   77SAPC   O31 8471   4.201   1.436   5.882
   77SAPC   C31 8472   4.191   1.440   5.751
   77SAPC   O32 8473   4.241   1.522   5.676
   77SAPC   C32 8474   4.100   1.326   5.712
   77SAPC   H2X 8475   4.019   1.324   5.787
   77SAPC   H2Y 8476   4.159   1.232   5.721
   77SAPC   C23 8477   3.928   1.655   5.675
   77SAPC   H3R 8478   3.922   1.552   5.714
   77SAPC   H3S 8479   4.036   1.678   5.657
   77SAPC   C24 8480   3.855   1.662   5.540
   77SAPC   H4R 8481   3.746   1.654   5.558
   77SAPC   H4S 8482   3.884   1.574   5.479
   77SAPC   C25 8483   3.890   1.790   5.469
   77SAPC   H5R 8484   3.834   1.877   5.508
   77SAPC   C26 8485   3.984   1.812   5.374
   77SAPC   H6R 8486   3.992   1.915   5.337
   77SAPC   C27 8487   4.084   1.721   5.306
   77SAPC   H7R 8488   4.176   1.721   5.369
   77SAPC   H7S 8489   4.115   1.774   5.213
   77SAPC   C28 8490   4.056   1.578   5.269
   77SAPC   H8R 8491   4.056   1.510   5.354
   77SAPC   C29 8492   4.039   1.525   5.146
   77SAPC   H9R 8493   4.024   1.416   5.139
   77SAPC  C210 8494   4.045   1.600   5.014
   77SAPC  H10R 8495   4.151   1.602   4.978
   77SAPC  H10S 8496   4.015   1.706   5.030
   77SAPC  C211 8497   3.955   1.543   4.907
   77SAPC  H11R 8498   3.879   1.473   4.945
   77SAPC  C212 8499   3.957   1.569   4.774
   77SAPC  H12R 8500   3.882   1.518   4.713
   77SAPC  C213 8501   4.049   1.659   4.694
   77SAPC  H13R 8502   4.106   1.598   4.622
   77SAPC  H13S 8503   4.124   1.708   4.761
   77SAPC  C214 8504   3.973   1.764   4.618
   77SAPC  H14R 8505   3.893   1.811   4.677
   77SAPC  C215 8506   3.992   1.807   4.491
   77SAPC  H15R 8507   3.924   1.885   4.452
   77SAPC  C216 8508   4.093   1.761   4.388
   77SAPC  H16R 8509   4.037   1.735   4.296
   77SAPC  H16S 8510   4.145   1.669   4.421
   77SAPC  C217 8511   4.200   1.865   4.347
   77SAPC  H17R 8512   4.295   1.837   4.398
   77SAPC  H17S 8513   4.171   1.966   4.381
   77SAPC  C218 8514   4.228   1.876   4.195
   77SAPC  H18R 8515   4.157   1.950   4.152
   77SAPC  H18S 8516   4.208   1.780   4.144
   77SAPC  C219 8517   4.372   1.922   4.167
   77SAPC  H19R 8518   4.442   1.856   4.223
   77SAPC  H19S 8519   4.381   2.025   4.210
   77SAPC  C220 8520   4.417   1.928   4.021
   77SAPC  H20R 8521   4.520   1.972   4.015
   77SAPC  H20S 8522   4.349   1.992   3.960
   77SAPC  H20T 8523   4.421   1.827   3.976
   77SAPC   C33 8524   4.040   1.342   5.571
   77SAPC   H3X 8525   4.103   1.288   5.497
   77SAPC   H3Y 8526   4.041   1.449   5.541
   77SAPC   C34 8527   3.895   1.293   5.572
   77SAPC   H4X 8528   3.832   1.368   5.624
   77SAPC   H4Y 8529   3.891   1.201   5.635
   77SAPC   C35 8530   3.835   1.260   5.436
   77SAPC   H5X 8531   3.781   1.163   5.449
   77SAPC   H5Y 8532   3.913   1.245   5.359
   77SAPC   C36 8533   3.735   1.363   5.384
   77SAPC   H6X 8534   3.789   1.435   5.318
   77SAPC   H6Y 8535   3.691   1.422   5.467
   77SAPC   C37 8536   3.619   1.300   5.305
   77SAPC   H7X 8537   3.583   1.374   5.231
   77SAPC   H7Y 8538   3.533   1.281   5.373
   77SAPC   C38 8539   3.654   1.171   5.231
   77SAPC   H8X 8540   3.646   1.085   5.301
   77SAPC   H8Y 8541   3.759   1.176   5.192
   77SAPC   C39 8542   3.561   1.149   5.112
   77SAPC   H9X 8543   3.459   1.180   5.146
   77SAPC   H9Y 8544   3.556   1.041   5.085
   77SAPC  C310 8545   3.604   1.231   4.991
   77SAPC  H10X 8546   3.653   1.325   5.025
   77SAPC  H10Y 8547   3.514   1.262   4.933
   77SAPC  C311 8548   3.700   1.155   4.898
   77SAPC  H11X 8549   3.652   1.060   4.866
   77SAPC  H11Y 8550   3.793   1.132   4.954
   77SAPC  C312 8551   3.735   1.240   4.776
   77SAPC  H12X 8552   3.774   1.337   4.813
   77SAPC  H12Y 8553   3.641   1.259   4.719
   77SAPC  C313 8554   3.840   1.179   4.681
   77SAPC  H13X 8555   3.795   1.090   4.632
   77SAPC  H13Y 8556   3.928   1.144   4.740
   77SAPC  C314 8557   3.889   1.277   4.573
   77SAPC  H14X 8558   3.938   1.220   4.491
   77SAPC  H14Y 8559   3.965   1.345   4.616
   77SAPC  C315 8560   3.774   1.361   4.513
   77SAPC  H15X 8561   3.727   1.421   4.594
   77SAPC  H15Y 8562   3.698   1.290   4.476
   77SAPC  C316 8563   3.813   1.462   4.404
   77SAPC  H16X 8564   3.898   1.524   4.440
   77SAPC  H16Y 8565   3.726   1.530   4.387
   77SAPC  C317 8566   3.848   1.400   4.268
   77SAPC  H17X 8567   3.765   1.335   4.236
   77SAPC  H17Y 8568   3.936   1.332   4.279
   77SAPC  C318 8569   3.875   1.504   4.158
   77SAPC  H18X 8570   3.936   1.461   4.076
   77SAPC  H18Y 8571   3.932   1.589   4.199
   77SAPC  H18Z 8572   3.780   1.541   4.113
   78SAPC     N 8573   4.213   2.017   6.235
   78SAPC   C12 8574   4.265   2.128   6.145
   78SAPC  H12A 8575   4.312   2.085   6.056
   78SAPC  H12B 8576   4.340   2.189   6.192
   78SAPC   C13 8577   4.121   2.073   6.339
   78SAPC  H13A 8578   4.044   2.135   6.291
   78SAPC  H13B 8579   4.071   1.993   6.392
   78SAPC  H13C 8580   4.170   2.138   6.409
   78SAPC   C14 8581   4.122   1.935   6.150
   78SAPC  H14A 8582   4.075   1.852   6.199
   78SAPC  H14B 8583   4.040   2.000   6.113
   78SAPC  H14C 8584   4.168   1.908   6.055
   78SAPC   C15 8585   4.323   1.936   6.295
   78SAPC  H15A 8586   4.284   1.857   6.359
   78SAPC  H15B 8587   4.382   1.888   6.217
   78SAPC  H15C 8588   4.390   1.998   6.354
   78SAPC   C11 8589   4.160   2.222   6.083
   78SAPC  H11A 8590   4.214   2.305   6.031
   78SAPC  H11B 8591   4.103   2.271   6.162
   78SAPC     P 8592   4.124   2.130   5.849
   78SAPC   O13 8593   4.267   2.096   5.864
   78SAPC   O14 8594   4.036   2.035   5.780
   78SAPC   O12 8595   4.070   2.150   5.997
   78SAPC   O11 8596   4.103   2.277   5.795
   78SAPC    C1 8597   3.991   2.348   5.851
   78SAPC    HA 8598   3.909   2.281   5.888
   78SAPC    HB 8599   4.023   2.412   5.935
   78SAPC    C2 8600   3.925   2.432   5.743
   78SAPC    HS 8601   3.839   2.484   5.791
   78SAPC   O21 8602   3.887   2.340   5.642
   78SAPC   C21 8603   3.764   2.301   5.636
   78SAPC   O22 8604   3.674   2.336   5.710
   78SAPC   C22 8605   3.756   2.207   5.515
   78SAPC   H2R 8606   3.807   2.263   5.433
   78SAPC   H2S 8607   3.817   2.118   5.540
   78SAPC    C3 8608   4.023   2.539   5.686
   78SAPC    HX 8609   4.094   2.560   5.769
   78SAPC    HY 8610   3.971   2.634   5.665
   78SAPC   O31 8611   4.100   2.501   5.572
   78SAPC   C31 8612   4.045   2.452   5.460
   78SAPC   O32 8613   3.930   2.466   5.423
   78SAPC   C32 8614   4.159   2.389   5.383
   78SAPC   H2X 8615   4.233   2.366   5.460
   78SAPC   H2Y 8616   4.192   2.469   5.315
   78SAPC   C23 8617   3.617   2.165   5.462
   78SAPC   H3R 8618   3.541   2.244   5.481
   78SAPC   H3S 8619   3.584   2.074   5.517
   78SAPC   C24 8620   3.622   2.138   5.309
   78SAPC   H4R 8621   3.608   2.236   5.259
   78SAPC   H4S 8622   3.534   2.075   5.282
   78SAPC   C25 8623   3.749   2.072   5.261
   78SAPC   H5R 8624   3.778   1.983   5.320
   78SAPC   C26 8625   3.829   2.111   5.160
   78SAPC   H6R 8626   3.917   2.050   5.135
   78SAPC   C27 8627   3.809   2.230   5.069
   78SAPC   H7R 8628   3.706   2.270   5.079
   78SAPC   H7S 8629   3.817   2.195   4.965
   78SAPC   C28 8630   3.906   2.344   5.094
   78SAPC   H8R 8631   3.926   2.365   5.200
   78SAPC   C29 8632   3.954   2.431   5.003
   78SAPC   H9R 8633   4.019   2.513   5.038
   78SAPC  C210 8634   3.917   2.432   4.858
   78SAPC  H10R 8635   3.816   2.478   4.859
   78SAPC  H10S 8636   3.902   2.328   4.822
   78SAPC  C211 8637   4.000   2.504   4.753
   78SAPC  H11R 8638   4.100   2.542   4.781
   78SAPC  C212 8639   3.951   2.524   4.628
   78SAPC  H12R 8640   4.014   2.566   4.548
   78SAPC  C213 8641   3.813   2.475   4.592
   78SAPC  H13R 8642   3.750   2.511   4.675
   78SAPC  H13S 8643   3.816   2.364   4.597
   78SAPC  C214 8644   3.732   2.517   4.474
   78SAPC  H14R 8645   3.690   2.617   4.481
   78SAPC  C215 8646   3.696   2.447   4.365
   78SAPC  H15R 8647   3.633   2.498   4.291
   78SAPC  C216 8648   3.729   2.305   4.329
   78SAPC  H16R 8649   3.637   2.249   4.298
   78SAPC  H16S 8650   3.776   2.248   4.412
   78SAPC  C217 8651   3.828   2.311   4.212
   78SAPC  H17R 8652   3.857   2.208   4.183
   78SAPC  H17S 8653   3.920   2.361   4.250
   78SAPC  C218 8654   3.787   2.393   4.088
   78SAPC  H18R 8655   3.867   2.381   4.011
   78SAPC  H18S 8656   3.784   2.501   4.114
   78SAPC  C219 8657   3.653   2.353   4.025
   78SAPC  H19R 8658   3.633   2.420   3.938
   78SAPC  H19S 8659   3.571   2.369   4.098
   78SAPC  C220 8660   3.653   2.209   3.979
   78SAPC  H20R 8661   3.741   2.191   3.914
   78SAPC  H20S 8662   3.561   2.184   3.921
   78SAPC  H20T 8663   3.661   2.140   4.065
   78SAPC   C33 8664   4.156   2.253   5.310
   78SAPC   H3X 8665   4.241   2.267   5.240
   78SAPC   H3Y 8666   4.068   2.231   5.250
   78SAPC   C34 8667   4.191   2.131   5.399
   78SAPC   H4X 8668   4.095   2.082   5.427
   78SAPC   H4Y 8669   4.237   2.163   5.495
   78SAPC   C35 8670   4.285   2.028   5.332
   78SAPC   H5X 8671   4.267   1.928   5.378
   78SAPC   H5Y 8672   4.391   2.056   5.352
   78SAPC   C36 8673   4.263   2.023   5.181
   78SAPC   H6X 8674   4.304   2.116   5.135
   78SAPC   H6Y 8675   4.153   2.019   5.163
   78SAPC   C37 8676   4.326   1.910   5.099
   78SAPC   H7X 8677   4.322   1.814   5.154
   78SAPC   H7Y 8678   4.434   1.933   5.079
   78SAPC   C38 8679   4.250   1.897   4.966
   78SAPC   H8X 8680   4.147   1.861   4.990
   78SAPC   H8Y 8681   4.297   1.820   4.901
   78SAPC   C39 8682   4.233   2.030   4.889
   78SAPC   H9X 8683   4.330   2.054   4.840
   78SAPC   H9Y 8684   4.209   2.115   4.956
   78SAPC  C310 8685   4.119   2.027   4.787
   78SAPC  H10X 8686   4.023   2.008   4.841
   78SAPC  H10Y 8687   4.137   1.943   4.716
   78SAPC  C311 8688   4.107   2.158   4.707
   78SAPC  H11X 8689   4.107   2.244   4.777
   78SAPC  H11Y 8690   4.010   2.159   4.652
   78SAPC  C312 8691   4.221   2.171   4.606
   78SAPC  H12X 8692   4.215   2.083   4.540
   78SAPC  H12Y 8693   4.318   2.167   4.661
   78SAPC  C313 8694   4.222   2.297   4.518
   78SAPC  H13X 8695   4.321   2.302   4.469
   78SAPC  H13Y 8696   4.212   2.389   4.581
   78SAPC  C314 8697   4.115   2.294   4.408
   78SAPC  H14X 8698   4.036   2.369   4.428
   78SAPC  H14Y 8699   4.064   2.194   4.410
   78SAPC  C315 8700   4.173   2.312   4.267
   78SAPC  H15X 8701   4.105   2.261   4.195
   78SAPC  H15Y 8702   4.271   2.262   4.260
   78SAPC  C316 8703   4.184   2.459   4.223
   78SAPC  H16X 8704   4.250   2.515   4.293
   78SAPC  H16Y 8705   4.084   2.507   4.224
   78SAPC  C317 8706   4.241   2.464   4.082
   78SAPC  H17X 8707   4.174   2.407   4.013
   78SAPC  H17Y 8708   4.338   2.410   4.085
   78SAPC  C318 8709   4.262   2.605   4.025
   78SAPC  H18X 8710   4.306   2.598   3.922
   78SAPC  H18Y 8711   4.332   2.664   4.088
   78SAPC  H18Z 8712   4.165   2.658   4.017
   79SAPC     N 8713   4.833   2.104   6.148
   79SAPC   C12 8714   4.979   2.083   6.189
   79SAPC  H12A 8715   4.984   2.024   6.279
   79SAPC  H12B 8716   5.022   2.178   6.217
   79SAPC   C13 8717   4.760   2.192   6.243
   79SAPC  H13A 8718   4.800   2.293   6.247
   79SAPC  H13B 8719   4.655   2.203   6.216
   79SAPC  H13C 8720   4.764   2.151   6.344
   79SAPC   C14 8721   4.832   2.169   6.017
   79SAPC  H14A 8722   4.878   2.105   5.941
   79SAPC  H14B 8723   4.735   2.200   5.983
   79SAPC  H14C 8724   4.898   2.256   6.016
   79SAPC   C15 8725   4.765   1.972   6.136
   79SAPC  H15A 8726   4.823   1.905   6.072
   79SAPC  H15B 8727   4.758   1.923   6.233
   79SAPC  H15C 8728   4.666   1.984   6.094
   79SAPC   C11 8729   5.075   2.019   6.085
   79SAPC  H11A 8730   5.038   1.919   6.053
   79SAPC  H11B 8731   5.172   2.000   6.138
   79SAPC     P 8732   5.227   2.157   5.922
   79SAPC   O13 8733   5.205   2.298   5.884
   79SAPC   O14 8734   5.327   2.131   6.027
   79SAPC   O12 8735   5.087   2.105   5.971
   79SAPC   O11 8736   5.251   2.061   5.797
   79SAPC    C1 8737   5.226   2.096   5.659
   79SAPC    HA 8738   5.223   2.206   5.651
   79SAPC    HB 8739   5.309   2.067   5.590
   79SAPC    C2 8740   5.094   2.036   5.597
   79SAPC    HS 8741   5.042   1.978   5.676
   79SAPC   O21 8742   5.122   1.950   5.483
   79SAPC   C21 8743   5.017   1.881   5.435
   79SAPC   O22 8744   4.909   1.868   5.490
   79SAPC   C22 8745   5.049   1.836   5.292
   79SAPC   H2R 8746   5.058   1.930   5.234
   79SAPC   H2S 8747   5.147   1.784   5.290
   79SAPC    C3 8748   5.005   2.155   5.551
   79SAPC    HX 8749   4.966   2.192   5.646
   79SAPC    HY 8750   4.922   2.126   5.483
   79SAPC   O31 8751   5.088   2.255   5.490
   79SAPC   C31 8752   5.046   2.369   5.443
   79SAPC   O32 8753   4.939   2.424   5.457
   79SAPC   C32 8754   5.160   2.421   5.360
   79SAPC   H2X 8755   5.251   2.412   5.423
   79SAPC   H2Y 8756   5.146   2.529   5.339
   79SAPC   C23 8757   4.937   1.752   5.223
   79SAPC   H3R 8758   4.838   1.793   5.253
   79SAPC   H3S 8759   4.944   1.647   5.258
   79SAPC   C24 8760   4.948   1.758   5.068
   79SAPC   H4R 8761   5.046   1.715   5.041
   79SAPC   H4S 8762   4.950   1.865   5.038
   79SAPC   C25 8763   4.839   1.684   4.994
   79SAPC   H5R 8764   4.811   1.587   5.038
   79SAPC   C26 8765   4.778   1.720   4.879
   79SAPC   H6R 8766   4.703   1.651   4.836
   79SAPC   C27 8767   4.800   1.843   4.794
   79SAPC   H7R 8768   4.816   1.813   4.688
   79SAPC   H7S 8769   4.892   1.898   4.823
   79SAPC   C28 8770   4.681   1.936   4.807
   79SAPC   H8R 8771   4.677   1.989   4.903
   79SAPC   C29 8772   4.583   1.960   4.717
   79SAPC   H9R 8773   4.507   2.033   4.746
   79SAPC  C210 8774   4.564   1.901   4.579
   79SAPC  H10R 8775   4.492   1.816   4.584
   79SAPC  H10S 8776   4.659   1.859   4.539
   79SAPC  C211 8777   4.507   2.007   4.488
   79SAPC  H11R 8778   4.399   2.022   4.500
   79SAPC  C212 8779   4.570   2.078   4.393
   79SAPC  H12R 8780   4.512   2.157   4.341
   79SAPC  C213 8781   4.714   2.070   4.352
   79SAPC  H13R 8782   4.721   2.079   4.242
   79SAPC  H13S 8783   4.755   1.969   4.376
   79SAPC  C214 8784   4.796   2.175   4.422
   79SAPC  H14R 8785   4.828   2.148   4.524
   79SAPC  C215 8786   4.838   2.291   4.370
   79SAPC  H15R 8787   4.903   2.355   4.433
   79SAPC  C216 8788   4.816   2.346   4.231
   79SAPC  H16R 8789   4.818   2.264   4.157
   79SAPC  H16S 8790   4.905   2.408   4.210
   79SAPC  C217 8791   4.695   2.435   4.197
   79SAPC  H17R 8792   4.641   2.469   4.287
   79SAPC  H17S 8793   4.624   2.371   4.140
   79SAPC  C218 8794   4.731   2.562   4.115
   79SAPC  H18R 8795   4.771   2.639   4.185
   79SAPC  H18S 8796   4.638   2.604   4.071
   79SAPC  C219 8797   4.835   2.542   4.004
   79SAPC  H19R 8798   4.803   2.456   3.941
   79SAPC  H19S 8799   4.933   2.516   4.048
   79SAPC  C220 8800   4.854   2.668   3.918
   79SAPC  H20R 8801   4.756   2.714   3.895
   79SAPC  H20S 8802   4.904   2.641   3.823
   79SAPC  H20T 8803   4.916   2.743   3.971
   79SAPC   C33 8804   5.178   2.338   5.230
   79SAPC   H3X 8805   5.286   2.314   5.223
   79SAPC   H3Y 8806   5.149   2.399   5.143
   79SAPC   C34 8807   5.114   2.199   5.217
   79SAPC   H4X 8808   5.003   2.208   5.203
   79SAPC   H4Y 8809   5.136   2.136   5.305
   79SAPC   C35 8810   5.176   2.131   5.096
   79SAPC   H5X 8811   5.179   2.021   5.105
   79SAPC   H5Y 8812   5.281   2.164   5.080
   79SAPC   C36 8813   5.095   2.164   4.973
   79SAPC   H6X 8814   5.082   2.275   4.964
   79SAPC   H6Y 8815   4.994   2.118   4.982
   79SAPC   C37 8816   5.167   2.113   4.850
   79SAPC   H7X 8817   5.180   2.003   4.860
   79SAPC   H7Y 8818   5.268   2.159   4.847
   79SAPC   C38 8819   5.089   2.147   4.725
   79SAPC   H8X 8820   5.051   2.252   4.732
   79SAPC   H8Y 8821   5.000   2.081   4.716
   79SAPC   C39 8822   5.177   2.137   4.602
   79SAPC   H9X 8823   5.250   2.221   4.608
   79SAPC   H9Y 8824   5.115   2.155   4.512
   79SAPC  C310 8825   5.258   2.006   4.592
   79SAPC  H10X 8826   5.338   2.015   4.669
   79SAPC  H10Y 8827   5.310   2.001   4.494
   79SAPC  C311 8828   5.182   1.875   4.618
   79SAPC  H11X 8829   5.094   1.888   4.684
   79SAPC  H11Y 8830   5.250   1.803   4.669
   79SAPC  C312 8831   5.138   1.805   4.490
   79SAPC  H12X 8832   5.096   1.704   4.511
   79SAPC  H12Y 8833   5.227   1.792   4.425
   79SAPC  C313 8834   5.034   1.883   4.412
   79SAPC  H13X 8835   5.040   1.992   4.429
   79SAPC  H13Y 8836   4.933   1.851   4.446
   79SAPC  C314 8837   5.051   1.857   4.262
   79SAPC  H14X 8838   4.957   1.896   4.216
   79SAPC  H14Y 8839   5.055   1.748   4.246
   79SAPC  C315 8840   5.173   1.920   4.193
   79SAPC  H15X 8841   5.165   1.901   4.084
   79SAPC  H15Y 8842   5.267   1.872   4.227
   79SAPC  C316 8843   5.185   2.071   4.211
   79SAPC  H16X 8844   5.269   2.112   4.150
   79SAPC  H16Y 8845   5.208   2.090   4.318
   79SAPC  C317 8846   5.058   2.143   4.171
   79SAPC  H17X 8847   5.069   2.251   4.193
   79SAPC  H17Y 8848   4.973   2.106   4.232
   79SAPC  C318 8849   5.022   2.126   4.024
   79SAPC  H18X 8850   5.110   2.150   3.961
   79SAPC  H18Y 8851   4.938   2.195   3.998
   79SAPC  H18Z 8852   4.989   2.023   4.002
   80SAPC     N 8853   0.857   4.556   5.862
   80SAPC   C12 8854   0.709   4.585   5.858
   80SAPC  H12A 8855   0.663   4.525   5.782
   80SAPC  H12B 8856   0.694   4.689   5.828
   80SAPC   C13 8857   0.875   4.432   5.943
   80SAPC  H13A 8858   0.825   4.346   5.900
   80SAPC  H13B 8859   0.978   4.412   5.964
   80SAPC  H13C 8860   0.821   4.449   6.037
   80SAPC   C14 8861   0.917   4.541   5.726
   80SAPC  H14A 8862   0.876   4.456   5.673
   80SAPC  H14B 8863   0.901   4.630   5.667
   80SAPC  H14C 8864   1.024   4.529   5.735
   80SAPC   C15 8865   0.925   4.671   5.933
   80SAPC  H15A 8866   0.932   4.761   5.874
   80SAPC  H15B 8867   0.866   4.697   6.022
   80SAPC  H15C 8868   1.024   4.644   5.967
   80SAPC   C11 8869   0.631   4.565   5.992
   80SAPC  H11A 8870   0.610   4.457   6.006
   80SAPC  H11B 8871   0.530   4.613   5.985
   80SAPC     P 8872   0.667   4.729   6.203
   80SAPC   O13 8873   0.602   4.666   6.320
   80SAPC   O14 8874   0.793   4.804   6.230
   80SAPC   O12 8875   0.706   4.612   6.104
   80SAPC   O11 8876   0.561   4.812   6.114
   80SAPC    C1 8877   0.605   4.889   6.001
   80SAPC    HA 8878   0.617   4.994   6.035
   80SAPC    HB 8879   0.704   4.855   5.962
   80SAPC    C2 8880   0.505   4.892   5.880
   80SAPC    HS 8881   0.404   4.907   5.923
   80SAPC   O21 8882   0.509   4.768   5.804
   80SAPC   C21 8883   0.409   4.750   5.717
   80SAPC   O22 8884   0.316   4.826   5.699
   80SAPC   C22 8885   0.418   4.610   5.654
   80SAPC   H2R 8886   0.466   4.542   5.727
   80SAPC   H2S 8887   0.314   4.574   5.640
   80SAPC    C3 8888   0.535   5.011   5.785
   80SAPC    HX 8889   0.530   5.107   5.843
   80SAPC    HY 8890   0.454   5.019   5.709
   80SAPC   O31 8891   0.658   4.992   5.713
   80SAPC   C31 8892   0.765   5.048   5.768
   80SAPC   O32 8893   0.763   5.123   5.864
   80SAPC   C32 8894   0.892   5.001   5.701
   80SAPC   H2X 8895   0.972   5.006   5.777
   80SAPC   H2Y 8896   0.915   5.075   5.622
   80SAPC   C23 8897   0.494   4.604   5.518
   80SAPC   H3R 8898   0.546   4.506   5.511
   80SAPC   H3S 8899   0.572   4.683   5.513
   80SAPC   C24 8900   0.402   4.612   5.395
   80SAPC   H4R 8901   0.334   4.523   5.395
   80SAPC   H4S 8902   0.466   4.602   5.304
   80SAPC   C25 8903   0.320   4.738   5.390
   80SAPC   H5R 8904   0.240   4.745   5.465
   80SAPC   C26 8905   0.335   4.841   5.305
   80SAPC   H6R 8906   0.266   4.927   5.316
   80SAPC   C27 8907   0.439   4.855   5.195
   80SAPC   H7R 8908   0.394   4.815   5.101
   80SAPC   H7S 8909   0.528   4.793   5.217
   80SAPC   C28 8910   0.480   4.998   5.171
   80SAPC   H8R 8911   0.437   5.073   5.238
   80SAPC   C29 8912   0.574   5.043   5.086
   80SAPC   H9R 8913   0.592   5.151   5.080
   80SAPC  C210 8914   0.661   4.960   4.995
   80SAPC  H10R 8915   0.712   4.884   5.057
   80SAPC  H10S 8916   0.743   5.026   4.959
   80SAPC  C211 8917   0.595   4.890   4.879
   80SAPC  H11R 8918   0.494   4.849   4.898
   80SAPC  C212 8919   0.652   4.873   4.758
   80SAPC  H12R 8920   0.598   4.816   4.681
   80SAPC  C213 8921   0.789   4.922   4.718
   80SAPC  H13R 8922   0.831   4.855   4.639
   80SAPC  H13S 8923   0.860   4.914   4.803
   80SAPC  C214 8924   0.784   5.065   4.671
   80SAPC  H14R 8925   0.703   5.127   4.714
   80SAPC  C215 8926   0.865   5.122   4.580
   80SAPC  H15R 8927   0.847   5.227   4.553
   80SAPC  C216 8928   0.979   5.057   4.505
   80SAPC  H16R 8929   1.013   4.964   4.557
   80SAPC  H16S 8930   1.065   5.127   4.502
   80SAPC  C217 8931   0.941   5.020   4.360
   80SAPC  H17R 8932   1.030   4.974   4.311
   80SAPC  H17S 8933   0.917   5.112   4.303
   80SAPC  C218 8934   0.823   4.922   4.352
   80SAPC  H18R 8935   0.737   4.961   4.410
   80SAPC  H18S 8936   0.854   4.825   4.400
   80SAPC  C219 8937   0.774   4.894   4.210
   80SAPC  H19R 8938   0.858   4.853   4.150
   80SAPC  H19S 8939   0.744   4.989   4.161
   80SAPC  C220 8940   0.656   4.797   4.210
   80SAPC  H20R 8941   0.676   4.713   4.281
   80SAPC  H20S 8942   0.639   4.754   4.109
   80SAPC  H20T 8943   0.563   4.848   4.244
   80SAPC   C33 8944   0.884   4.861   5.639
   80SAPC   H3X 8945   0.810   4.797   5.692
   80SAPC   H3Y 8946   0.985   4.814   5.649
   80SAPC   C34 8947   0.850   4.869   5.491
   80SAPC   H4X 8948   0.923   4.938   5.442
   80SAPC   H4Y 8949   0.749   4.913   5.477
   80SAPC   C35 8950   0.859   4.734   5.421
   80SAPC   H5X 8951   0.781   4.665   5.459
   80SAPC   H5Y 8952   0.959   4.689   5.440
   80SAPC   C36 8953   0.841   4.752   5.271
   80SAPC   H6X 8954   0.917   4.825   5.234
   80SAPC   H6Y 8955   0.741   4.796   5.250
   80SAPC   C37 8956   0.857   4.621   5.196
   80SAPC   H7X 8957   0.772   4.553   5.219
   80SAPC   H7Y 8958   0.951   4.572   5.228
   80SAPC   C38 8959   0.863   4.645   5.045
   80SAPC   H8X 8960   0.941   4.722   5.025
   80SAPC   H8Y 8961   0.766   4.686   5.009
   80SAPC   C39 8962   0.899   4.518   4.969
   80SAPC   H9X 8963   0.951   4.447   5.037
   80SAPC   H9Y 8964   0.969   4.546   4.888
   80SAPC  C310 8965   0.779   4.447   4.906
   80SAPC  H10X 8966   0.706   4.416   4.984
   80SAPC  H10Y 8967   0.818   4.354   4.858
   80SAPC  C311 8968   0.710   4.533   4.800
   80SAPC  H11X 8969   0.784   4.607   4.761
   80SAPC  H11Y 8970   0.627   4.590   4.846
   80SAPC  C312 8971   0.662   4.448   4.683
   80SAPC  H12X 8972   0.579   4.381   4.715
   80SAPC  H12Y 8973   0.746   4.383   4.655
   80SAPC  C313 8974   0.621   4.531   4.563
   80SAPC  H13X 8975   0.627   4.471   4.469
   80SAPC  H13Y 8976   0.690   4.618   4.551
   80SAPC  C314 8977   0.478   4.580   4.581
   80SAPC  H14X 8978   0.466   4.622   4.683
   80SAPC  H14Y 8979   0.409   4.493   4.572
   80SAPC  C315 8980   0.439   4.687   4.480
   80SAPC  H15X 8981   0.441   4.642   4.378
   80SAPC  H15Y 8982   0.510   4.772   4.481
   80SAPC  C316 8983   0.299   4.736   4.514
   80SAPC  H16X 8984   0.302   4.815   4.592
   80SAPC  H16Y 8985   0.243   4.649   4.556
   80SAPC  C317 8986   0.221   4.783   4.393
   80SAPC  H17X 8987   0.247   4.721   4.304
   80SAPC  H17Y 8988   0.249   4.888   4.369
   80SAPC  C318 8989   0.073   4.769   4.421
   80SAPC  H18X 8990   0.040   4.835   4.503
   80SAPC  H18Y 8991   0.054   4.665   4.456
   80SAPC  H18Z 8992   0.012   4.788   4.331
   81SAPC     N 8993   2.341   3.354   1.798
   81SAPC   C12 8994   2.274   3.270   1.906
   81SAPC  H12A 8995   2.337   3.187   1.934
   81SAPC  H12B 8996   2.184   3.225   1.863
   81SAPC   C13 8997   2.245   3.460   1.753
   81SAPC  H13A 8998   2.150   3.415   1.725
   81SAPC  H13B 8999   2.220   3.525   1.838
   81SAPC  H13C 9000   2.282   3.518   1.670
   81SAPC   C14 9001   2.462   3.421   1.854
   81SAPC  H14A 9002   2.434   3.494   1.931
   81SAPC  H14B 9003   2.527   3.351   1.904
   81SAPC  H14C 9004   2.517   3.474   1.777
   81SAPC   C15 9005   2.371   3.270   1.680
   81SAPC  H15A 9006   2.279   3.225   1.640
   81SAPC  H15B 9007   2.412   3.330   1.600
   81SAPC  H15C 9008   2.438   3.189   1.703
   81SAPC   C11 9009   2.226   3.341   2.033
   81SAPC  H11A 9010   2.311   3.394   2.081
   81SAPC  H11B 9011   2.190   3.262   2.104
   81SAPC     P 9012   2.042   3.498   2.121
   81SAPC   O13 9013   1.915   3.554   2.070
   81SAPC   O14 9014   2.035   3.403   2.234
   81SAPC   O12 9015   2.122   3.433   2.001
   81SAPC   O11 9016   2.137   3.616   2.165
   81SAPC    C1 9017   2.176   3.717   2.073
   81SAPC    HA 9018   2.229   3.672   1.986
   81SAPC    HB 9019   2.087   3.772   2.035
   81SAPC    C2 9020   2.272   3.820   2.140
   81SAPC    HS 9021   2.336   3.866   2.062
   81SAPC   O21 9022   2.356   3.759   2.241
   81SAPC   C21 9023   2.431   3.658   2.198
   81SAPC   O22 9024   2.457   3.633   2.080
   81SAPC   C22 9025   2.500   3.591   2.317
   81SAPC   H2R 9026   2.608   3.613   2.305
   81SAPC   H2S 9027   2.465   3.638   2.410
   81SAPC    C3 9028   2.190   3.937   2.203
   81SAPC    HX 9029   2.155   4.001   2.119
   81SAPC    HY 9030   2.258   4.001   2.264
   81SAPC   O31 9031   2.074   3.891   2.277
   81SAPC   C31 9032   2.102   3.851   2.401
   81SAPC   O32 9033   2.201   3.883   2.465
   81SAPC   C32 9034   1.993   3.762   2.458
   81SAPC   H2X 9035   2.044   3.672   2.498
   81SAPC   H2Y 9036   1.925   3.730   2.377
   81SAPC   C23 9037   2.478   3.438   2.323
   81SAPC   H3R 9038   2.574   3.388   2.350
   81SAPC   H3S 9039   2.452   3.398   2.223
   81SAPC   C24 9040   2.370   3.396   2.425
   81SAPC   H4R 9041   2.337   3.293   2.399
   81SAPC   H4S 9042   2.281   3.461   2.412
   81SAPC   C25 9043   2.424   3.395   2.566
   81SAPC   H5R 9044   2.486   3.307   2.589
   81SAPC   C26 9045   2.409   3.488   2.662
   81SAPC   H6R 9046   2.458   3.469   2.758
   81SAPC   C27 9047   2.334   3.620   2.656
   81SAPC   H7R 9048   2.259   3.622   2.737
   81SAPC   H7S 9049   2.276   3.628   2.562
   81SAPC   C28 9050   2.427   3.739   2.667
   81SAPC   H8R 9051   2.445   3.788   2.570
   81SAPC   C29 9052   2.481   3.793   2.777
   81SAPC   H9R 9053   2.550   3.878   2.765
   81SAPC  C210 9054   2.462   3.749   2.920
   81SAPC  H10R 9055   2.354   3.728   2.938
   81SAPC  H10S 9056   2.487   3.832   2.989
   81SAPC  C211 9057   2.548   3.630   2.953
   81SAPC  H11R 9058   2.654   3.643   2.930
   81SAPC  C212 9059   2.510   3.515   3.012
   81SAPC  H12R 9060   2.585   3.437   3.025
   81SAPC  C213 9061   2.374   3.475   3.062
   81SAPC  H13R 9062   2.331   3.396   2.997
   81SAPC  H13S 9063   2.304   3.561   3.057
   81SAPC  C214 9064   2.385   3.425   3.204
   81SAPC  H14R 9065   2.379   3.316   3.217
   81SAPC  C215 9066   2.399   3.503   3.313
   81SAPC  H15R 9067   2.406   3.457   3.413
   81SAPC  C216 9068   2.407   3.654   3.312
   81SAPC  H16R 9069   2.315   3.694   3.359
   81SAPC  H16S 9070   2.407   3.694   3.209
   81SAPC  C217 9071   2.529   3.714   3.384
   81SAPC  H17R 9072   2.529   3.824   3.362
   81SAPC  H17S 9073   2.624   3.673   3.341
   81SAPC  C218 9074   2.531   3.697   3.536
   81SAPC  H18R 9075   2.565   3.595   3.561
   81SAPC  H18S 9076   2.429   3.709   3.578
   81SAPC  C219 9077   2.622   3.802   3.601
   81SAPC  H19R 9078   2.580   3.902   3.578
   81SAPC  H19S 9079   2.722   3.795   3.553
   81SAPC  C220 9080   2.638   3.790   3.752
   81SAPC  H20R 9081   2.540   3.785   3.802
   81SAPC  H20S 9082   2.695   3.876   3.793
   81SAPC  H20T 9083   2.695   3.698   3.777
   81SAPC   C33 9084   1.916   3.835   2.571
   81SAPC   H3X 9085   1.842   3.903   2.524
   81SAPC   H3Y 9086   1.984   3.897   2.633
   81SAPC   C34 9087   1.843   3.736   2.663
   81SAPC   H4X 9088   1.793   3.660   2.599
   81SAPC   H4Y 9089   1.764   3.790   2.720
   81SAPC   C35 9090   1.931   3.667   2.768
   81SAPC   H5X 9091   2.020   3.622   2.718
   81SAPC   H5Y 9092   1.871   3.585   2.813
   81SAPC   C36 9093   1.972   3.759   2.884
   81SAPC   H6X 9094   1.881   3.796   2.936
   81SAPC   H6Y 9095   2.026   3.847   2.842
   81SAPC   C37 9096   2.065   3.690   2.985
   81SAPC   H7X 9097   2.101   3.764   3.060
   81SAPC   H7Y 9098   2.154   3.656   2.927
   81SAPC   C38 9099   2.010   3.566   3.057
   81SAPC   H8X 9100   2.099   3.521   3.105
   81SAPC   H8Y 9101   1.972   3.491   2.986
   81SAPC   C39 9102   1.905   3.593   3.166
   81SAPC   H9X 9103   1.804   3.600   3.120
   81SAPC   H9Y 9104   1.927   3.692   3.214
   81SAPC  C310 9105   1.902   3.485   3.277
   81SAPC  H10X 9106   1.863   3.392   3.234
   81SAPC  H10Y 9107   1.830   3.518   3.353
   81SAPC  C311 9108   2.040   3.458   3.342
   81SAPC  H11X 9109   2.094   3.554   3.355
   81SAPC  H11Y 9110   2.101   3.398   3.271
   81SAPC  C312 9111   2.045   3.384   3.477
   81SAPC  H12X 9112   2.148   3.395   3.516
   81SAPC  H12Y 9113   2.030   3.275   3.459
   81SAPC  C313 9114   1.946   3.426   3.588
   81SAPC  H13X 9115   1.986   3.388   3.685
   81SAPC  H13Y 9116   1.852   3.371   3.568
   81SAPC  C314 9117   1.911   3.576   3.606
   81SAPC  H14X 9118   1.850   3.583   3.699
   81SAPC  H14Y 9119   1.844   3.611   3.526
   81SAPC  C315 9120   2.029   3.673   3.616
   81SAPC  H15X 9121   2.124   3.615   3.613
   81SAPC  H15Y 9122   2.024   3.726   3.714
   81SAPC  C316 9123   2.030   3.780   3.506
   81SAPC  H16X 9124   1.945   3.850   3.518
   81SAPC  H16Y 9125   2.018   3.730   3.408
   81SAPC  C317 9126   2.162   3.857   3.505
   81SAPC  H17X 9127   2.182   3.898   3.404
   81SAPC  H17Y 9128   2.244   3.785   3.529
   81SAPC  C318 9129   2.165   3.970   3.607
   81SAPC  H18X 9130   2.097   4.051   3.572
   81SAPC  H18Y 9131   2.267   4.012   3.619
   81SAPC  H18Z 9132   2.130   3.934   3.706
   82SAPC     N 9133   1.133   2.699   2.146
   82SAPC   C12 9134   1.024   2.702   2.038
   82SAPC  H12A 9135   1.057   2.768   1.958
   82SAPC  H12B 9136   0.934   2.746   2.078
   82SAPC   C13 9137   1.111   2.583   2.238
   82SAPC  H13A 9138   1.112   2.491   2.179
   82SAPC  H13B 9139   1.189   2.576   2.313
   82SAPC  H13C 9140   1.015   2.587   2.287
   82SAPC   C14 9141   1.262   2.678   2.073
   82SAPC  H14A 9142   1.348   2.673   2.137
   82SAPC  H14B 9143   1.254   2.583   2.017
   82SAPC  H14C 9144   1.278   2.753   1.997
   82SAPC   C15 9145   1.136   2.827   2.222
   82SAPC  H15A 9146   1.204   2.818   2.307
   82SAPC  H15B 9147   1.176   2.905   2.159
   82SAPC  H15C 9148   1.038   2.855   2.259
   82SAPC   C11 9149   0.987   2.564   1.976
   82SAPC  H11A 9150   0.922   2.583   1.887
   82SAPC  H11B 9151   0.926   2.508   2.051
   82SAPC     P 9152   1.092   2.339   1.896
   82SAPC   O13 9153   1.007   2.328   1.774
   82SAPC   O14 9154   1.226   2.277   1.889
   82SAPC   O12 9155   1.104   2.491   1.938
   82SAPC   O11 9156   1.018   2.274   2.021
   82SAPC    C1 9157   0.954   2.146   2.015
   82SAPC    HA 9158   0.876   2.148   1.936
   82SAPC    HB 9159   1.026   2.065   1.991
   82SAPC    C2 9160   0.877   2.104   2.147
   82SAPC    HS 9161   0.780   2.057   2.115
   82SAPC   O21 9162   0.853   2.217   2.232
   82SAPC   C21 9163   0.763   2.296   2.182
   82SAPC   O22 9164   0.702   2.280   2.077
   82SAPC   C22 9165   0.740   2.417   2.274
   82SAPC   H2R 9166   0.793   2.502   2.228
   82SAPC   H2S 9167   0.631   2.438   2.274
   82SAPC    C3 9168   0.945   1.999   2.238
   82SAPC    HX 9169   0.966   1.906   2.181
   82SAPC    HY 9170   0.868   1.972   2.314
   82SAPC   O31 9171   1.058   2.057   2.307
   82SAPC   C31 9172   1.173   2.036   2.249
   82SAPC   O32 9173   1.196   1.947   2.168
   82SAPC   C32 9174   1.279   2.141   2.286
   82SAPC   H2X 9175   1.302   2.195   2.191
   82SAPC   H2Y 9176   1.370   2.085   2.315
   82SAPC   C23 9177   0.790   2.396   2.419
   82SAPC   H3R 9178   0.782   2.493   2.475
   82SAPC   H3S 9179   0.897   2.368   2.418
   82SAPC   C24 9180   0.708   2.290   2.493
   82SAPC   H4R 9181   0.699   2.198   2.431
   82SAPC   H4S 9182   0.604   2.327   2.506
   82SAPC   C25 9183   0.772   2.255   2.624
   82SAPC   H5R 9184   0.876   2.221   2.616
   82SAPC   C26 9185   0.717   2.269   2.746
   82SAPC   H6R 9186   0.778   2.249   2.835
   82SAPC   C27 9187   0.580   2.323   2.775
   82SAPC   H7R 9188   0.554   2.309   2.882
   82SAPC   H7S 9189   0.503   2.266   2.718
   82SAPC   C28 9190   0.581   2.471   2.742
   82SAPC   H8R 9191   0.529   2.496   2.649
   82SAPC   C29 9192   0.654   2.567   2.803
   82SAPC   H9R 9193   0.643   2.670   2.766
   82SAPC  C210 9194   0.750   2.550   2.918
   82SAPC  H10R 9195   0.813   2.641   2.922
   82SAPC  H10S 9196   0.821   2.466   2.900
   82SAPC  C211 9197   0.679   2.534   3.050
   82SAPC  H11R 9198   0.621   2.623   3.079
   82SAPC  C212 9199   0.680   2.430   3.136
   82SAPC  H12R 9200   0.626   2.445   3.230
   82SAPC  C213 9201   0.751   2.296   3.130
   82SAPC  H13R 9202   0.796   2.286   3.230
   82SAPC  H13S 9203   0.836   2.305   3.059
   82SAPC  C214 9204   0.680   2.166   3.096
   82SAPC  H14R 9205   0.638   2.165   2.995
   82SAPC  C215 9206   0.661   2.051   3.167
   82SAPC  H15R 9207   0.608   1.970   3.115
   82SAPC  C216 9208   0.704   2.012   3.308
   82SAPC  H16R 9209   0.616   2.029   3.374
   82SAPC  H16S 9210   0.786   2.077   3.345
   82SAPC  C217 9211   0.748   1.865   3.330
   82SAPC  H17R 9212   0.838   1.839   3.270
   82SAPC  H17S 9213   0.666   1.797   3.294
   82SAPC  C218 9214   0.778   1.833   3.478
   82SAPC  H18R 9215   0.750   1.727   3.499
   82SAPC  H18S 9216   0.711   1.898   3.540
   82SAPC  C219 9217   0.925   1.853   3.520
   82SAPC  H19R 9218   0.957   1.953   3.485
   82SAPC  H19S 9219   0.989   1.779   3.466
   82SAPC  C220 9220   0.952   1.844   3.671
   82SAPC  H20R 9221   0.988   1.743   3.702
   82SAPC  H20S 9222   0.859   1.865   3.727
   82SAPC  H20T 9223   1.028   1.918   3.703
   82SAPC   C33 9224   1.245   2.247   2.394
   82SAPC   H3X 9225   1.139   2.241   2.428
   82SAPC   H3Y 9226   1.257   2.348   2.347
   82SAPC   C34 9227   1.340   2.242   2.515
   82SAPC   H4X 9228   1.444   2.228   2.479
   82SAPC   H4Y 9229   1.314   2.154   2.577
   82SAPC   C35 9230   1.338   2.369   2.602
   82SAPC   H5X 9231   1.381   2.454   2.544
   82SAPC   H5Y 9232   1.404   2.352   2.690
   82SAPC   C36 9233   1.198   2.409   2.652
   82SAPC   H6X 9234   1.148   2.322   2.700
   82SAPC   H6Y 9235   1.137   2.437   2.563
   82SAPC   C37 9236   1.199   2.529   2.749
   82SAPC   H7X 9237   1.113   2.595   2.721
   82SAPC   H7Y 9238   1.292   2.588   2.736
   82SAPC   C38 9239   1.180   2.492   2.897
   82SAPC   H8X 9240   1.093   2.423   2.905
   82SAPC   H8Y 9241   1.154   2.584   2.955
   82SAPC   C39 9242   1.303   2.427   2.963
   82SAPC   H9X 9243   1.387   2.500   2.968
   82SAPC   H9Y 9244   1.336   2.343   2.898
   82SAPC  C310 9245   1.272   2.369   3.102
   82SAPC  H10X 9246   1.313   2.265   3.106
   82SAPC  H10Y 9247   1.162   2.360   3.115
   82SAPC  C311 9248   1.331   2.444   3.223
   82SAPC  H11X 9249   1.442   2.447   3.216
   82SAPC  H11Y 9250   1.306   2.384   3.313
   82SAPC  C312 9251   1.275   2.585   3.243
   82SAPC  H12X 9252   1.165   2.584   3.225
   82SAPC  H12Y 9253   1.321   2.652   3.166
   82SAPC  C313 9254   1.301   2.643   3.383
   82SAPC  H13X 9255   1.280   2.753   3.378
   82SAPC  H13Y 9256   1.408   2.630   3.411
   82SAPC  C314 9257   1.210   2.585   3.493
   82SAPC  H14X 9258   1.240   2.481   3.516
   82SAPC  H14Y 9259   1.106   2.583   3.454
   82SAPC  C315 9260   1.209   2.669   3.623
   82SAPC  H15X 9261   1.193   2.775   3.594
   82SAPC  H15Y 9262   1.307   2.662   3.675
   82SAPC  C316 9263   1.095   2.632   3.720
   82SAPC  H16X 9264   1.003   2.614   3.661
   82SAPC  H16Y 9265   1.074   2.718   3.788
   82SAPC  C317 9266   1.123   2.509   3.809
   82SAPC  H17X 9267   1.164   2.427   3.747
   82SAPC  H17Y 9268   1.025   2.475   3.849
   82SAPC  C318 9269   1.216   2.534   3.928
   82SAPC  H18X 9270   1.219   2.444   3.993
   82SAPC  H18Y 9271   1.180   2.620   3.989
   82SAPC  H18Z 9272   1.320   2.555   3.893
   83SAPC     N 9273   0.562   3.015   2.087
   83SAPC   C12 9274   0.603   3.060   1.946
   83SAPC  H12A 9275   0.564   2.990   1.873
   83SAPC  H12B 9276   0.713   3.053   1.942
   83SAPC   C13 9277   0.595   2.870   2.103
   83SAPC  H13A 9278   0.692   2.847   2.063
   83SAPC  H13B 9279   0.591   2.841   2.208
   83SAPC  H13C 9280   0.520   2.811   2.051
   83SAPC   C14 9281   0.638   3.098   2.185
   83SAPC  H14A 9282   0.744   3.097   2.161
   83SAPC  H14B 9283   0.608   3.203   2.175
   83SAPC  H14C 9284   0.620   3.065   2.286
   83SAPC   C15 9285   0.415   3.031   2.112
   83SAPC  H15A 9286   0.359   2.956   2.057
   83SAPC  H15B 9287   0.390   3.019   2.217
   83SAPC  H15C 9288   0.381   3.129   2.079
   83SAPC   C11 9289   0.569   3.204   1.898
   83SAPC  H11A 9290   0.465   3.229   1.922
   83SAPC  H11B 9291   0.579   3.209   1.786
   83SAPC     P 9292   0.802   3.316   1.935
   83SAPC   O13 9293   0.865   3.195   1.993
   83SAPC   O14 9294   0.822   3.345   1.791
   83SAPC   O12 9295   0.646   3.304   1.960
   83SAPC   O11 9296   0.840   3.439   2.030
   83SAPC    C1 9297   0.731   3.499   2.102
   83SAPC    HA 9298   0.670   3.563   2.033
   83SAPC    HB 9299   0.662   3.423   2.148
   83SAPC    C2 9300   0.778   3.583   2.222
   83SAPC    HS 9301   0.850   3.658   2.185
   83SAPC   O21 9302   0.842   3.489   2.311
   83SAPC   C21 9303   0.844   3.502   2.440
   83SAPC   O22 9304   0.821   3.601   2.506
   83SAPC   C22 9305   0.866   3.365   2.503
   83SAPC   H2R 9306   0.884   3.384   2.611
   83SAPC   H2S 9307   0.771   3.309   2.492
   83SAPC    C3 9308   0.653   3.656   2.282
   83SAPC    HX 9309   0.606   3.714   2.199
   83SAPC    HY 9310   0.686   3.732   2.356
   83SAPC   O31 9311   0.557   3.559   2.331
   83SAPC   C31 9312   0.532   3.567   2.461
   83SAPC   O32 9313   0.561   3.659   2.534
   83SAPC   C32 9314   0.458   3.440   2.506
   83SAPC   H2X 9315   0.482   3.356   2.438
   83SAPC   H2Y 9316   0.349   3.462   2.498
   83SAPC   C23 9317   0.982   3.282   2.443
   83SAPC   H3R 9318   1.078   3.337   2.454
   83SAPC   H3S 9319   0.961   3.268   2.335
   83SAPC   C24 9320   0.991   3.144   2.510
   83SAPC   H4R 9321   1.051   3.076   2.445
   83SAPC   H4S 9322   0.888   3.101   2.513
   83SAPC   C25 9323   1.053   3.147   2.648
   83SAPC   H5R 9324   1.162   3.136   2.650
   83SAPC   C26 9325   0.989   3.160   2.767
   83SAPC   H6R 9326   1.050   3.159   2.859
   83SAPC   C27 9327   0.841   3.176   2.791
   83SAPC   H7R 9328   0.787   3.203   2.698
   83SAPC   H7S 9329   0.825   3.263   2.859
   83SAPC   C28 9330   0.775   3.053   2.850
   83SAPC   H8R 9331   0.725   2.988   2.776
   83SAPC   C29 9332   0.774   3.018   2.980
   83SAPC   H9R 9333   0.722   2.925   3.010
   83SAPC  C210 9334   0.837   3.094   3.093
   83SAPC  H10R 9335   0.774   3.086   3.184
   83SAPC  H10S 9336   0.839   3.203   3.070
   83SAPC  C211 9337   0.978   3.048   3.124
   83SAPC  H11R 9338   1.022   2.975   3.054
   83SAPC  C212 9339   1.052   3.093   3.228
   83SAPC  H12R 9340   1.155   3.055   3.240
   83SAPC  C213 9341   1.007   3.196   3.329
   83SAPC  H13R 9342   1.082   3.201   3.411
   83SAPC  H13S 9343   0.913   3.161   3.377
   83SAPC  C214 9344   0.989   3.334   3.270
   83SAPC  H14R 9345   1.054   3.357   3.184
   83SAPC  C215 9346   0.900   3.427   3.308
   83SAPC  H15R 9347   0.898   3.523   3.255
   83SAPC  C216 9348   0.798   3.414   3.418
   83SAPC  H16R 9349   0.779   3.309   3.449
   83SAPC  H16S 9350   0.701   3.452   3.379
   83SAPC  C217 9351   0.832   3.497   3.543
   83SAPC  H17R 9352   0.737   3.511   3.596
   83SAPC  H17S 9353   0.864   3.598   3.509
   83SAPC  C218 9354   0.936   3.433   3.636
   83SAPC  H18R 9355   1.038   3.462   3.602
   83SAPC  H18S 9356   0.929   3.322   3.622
   83SAPC  C219 9357   0.922   3.455   3.790
   83SAPC  H19R 9358   1.024   3.464   3.833
   83SAPC  H19S 9359   0.881   3.360   3.832
   83SAPC  C220 9360   0.833   3.568   3.846
   83SAPC  H20R 9361   0.878   3.667   3.838
   83SAPC  H20S 9362   0.812   3.548   3.953
   83SAPC  H20T 9363   0.736   3.574   3.794
   83SAPC   C33 9364   0.493   3.403   2.653
   83SAPC   H3X 9365   0.501   3.495   2.715
   83SAPC   H3Y 9366   0.592   3.353   2.656
   83SAPC   C34 9367   0.387   3.314   2.719
   83SAPC   H4X 9368   0.360   3.230   2.651
   83SAPC   H4Y 9369   0.296   3.375   2.737
   83SAPC   C35 9370   0.432   3.254   2.854
   83SAPC   H5X 9371   0.533   3.209   2.842
   83SAPC   H5Y 9372   0.361   3.173   2.880
   83SAPC   C36 9373   0.435   3.354   2.971
   83SAPC   H6X 9374   0.333   3.398   2.982
   83SAPC   H6Y 9375   0.506   3.437   2.949
   83SAPC   C37 9376   0.475   3.285   3.102
   83SAPC   H7X 9377   0.579   3.245   3.091
   83SAPC   H7Y 9378   0.408   3.197   3.117
   83SAPC   C38 9379   0.470   3.371   3.230
   83SAPC   H8X 9380   0.553   3.444   3.229
   83SAPC   H8Y 9381   0.488   3.303   3.316
   83SAPC   C39 9382   0.338   3.446   3.253
   83SAPC   H9X 9383   0.255   3.385   3.208
   83SAPC   H9Y 9384   0.338   3.544   3.200
   83SAPC  C310 9385   0.303   3.465   3.401
   83SAPC  H10X 9386   0.302   3.365   3.451
   83SAPC  H10Y 9387   0.199   3.506   3.408
   83SAPC  C311 9388   0.395   3.558   3.482
   83SAPC  H11X 9389   0.393   3.658   3.435
   83SAPC  H11Y 9390   0.500   3.521   3.481
   83SAPC  C312 9391   0.346   3.570   3.627
   83SAPC  H12X 9392   0.236   3.588   3.622
   83SAPC  H12Y 9393   0.393   3.658   3.676
   83SAPC  C313 9394   0.372   3.445   3.713
   83SAPC  H13X 9395   0.374   3.355   3.647
   83SAPC  H13Y 9396   0.291   3.432   3.787
   83SAPC  C314 9397   0.506   3.454   3.786
   83SAPC  H14X 9398   0.498   3.531   3.866
   83SAPC  H14Y 9399   0.578   3.490   3.711
   83SAPC  C315 9400   0.559   3.323   3.846
   83SAPC  H15X 9401   0.477   3.265   3.893
   83SAPC  H15Y 9402   0.632   3.350   3.926
   83SAPC  C316 9403   0.635   3.238   3.743
   83SAPC  H16X 9404   0.707   3.304   3.690
   83SAPC  H16Y 9405   0.565   3.199   3.667
   83SAPC  C317 9406   0.717   3.123   3.804
   83SAPC  H17X 9407   0.650   3.058   3.865
   83SAPC  H17Y 9408   0.793   3.166   3.874
   83SAPC  C318 9409   0.789   3.037   3.700
   83SAPC  H18X 9410   0.854   3.100   3.635
   83SAPC  H18Y 9411   0.715   2.986   3.635
   83SAPC  H18Z 9412   0.853   2.960   3.748
   84SAPC     N 9413   3.892   0.044   1.829
   84SAPC   C12 9414   3.979   0.151   1.889
   84SAPC  H12A 9415   4.004   0.224   1.812
   84SAPC  H12B 9416   4.075   0.108   1.916
   84SAPC   C13 9417   3.747   0.077   1.842
   84SAPC  H13A 9418   3.724   0.096   1.948
   84SAPC  H13B 9419   3.718   0.165   1.788
   84SAPC  H13C 9420   3.685  -0.005   1.811
   84SAPC   C14 9421   3.925   0.022   1.685
   84SAPC  H14A 9422   4.030  -0.002   1.673
   84SAPC  H14B 9423   3.868  -0.064   1.651
   84SAPC  H14C 9424   3.898   0.107   1.623
   84SAPC   C15 9425   3.915  -0.084   1.904
   84SAPC  H15A 9426   3.837  -0.153   1.878
   84SAPC  H15B 9427   4.010  -0.129   1.879
   84SAPC  H15C 9428   3.910  -0.064   2.011
   84SAPC   C11 9429   3.927   0.234   2.008
   84SAPC  H11A 9430   3.840   0.296   1.976
   84SAPC  H11B 9431   4.009   0.305   2.036
   84SAPC     P 9432   3.762   0.161   2.202
   84SAPC   O13 9433   3.653   0.180   2.103
   84SAPC   O14 9434   3.758   0.043   2.291
   84SAPC   O12 9435   3.897   0.155   2.121
   84SAPC   O11 9436   3.762   0.294   2.287
   84SAPC    C1 9437   3.848   0.406   2.275
   84SAPC    HA 9438   3.885   0.423   2.171
   84SAPC    HB 9439   3.792   0.497   2.302
   84SAPC    C2 9440   3.967   0.398   2.373
   84SAPC    HS 9441   4.018   0.497   2.370
   84SAPC   O21 9442   4.054   0.296   2.326
   84SAPC   C21 9443   4.172   0.292   2.383
   84SAPC   O22 9444   4.224   0.382   2.446
   84SAPC   C22 9445   4.233   0.157   2.355
   84SAPC   H2R 9446   4.162   0.091   2.302
   84SAPC   H2S 9447   4.321   0.175   2.288
   84SAPC    C3 9448   3.923   0.372   2.521
   84SAPC    HX 9449   3.833   0.437   2.536
   84SAPC    HY 9450   4.003   0.408   2.589
   84SAPC   O31 9451   3.896   0.232   2.549
   84SAPC   C31 9452   3.799   0.210   2.637
   84SAPC   O32 9453   3.729   0.297   2.686
   84SAPC   C32 9454   3.790   0.061   2.674
   84SAPC   H2X 9455   3.888   0.013   2.654
   84SAPC   H2Y 9456   3.716   0.017   2.604
   84SAPC   C23 9457   4.282   0.096   2.487
   84SAPC   H3R 9458   4.358   0.168   2.525
   84SAPC   H3S 9459   4.334   0.000   2.464
   84SAPC   C24 9460   4.172   0.078   2.593
   84SAPC   H4R 9461   4.084   0.034   2.541
   84SAPC   H4S 9462   4.139   0.179   2.628
   84SAPC   C25 9463   4.206  -0.010   2.711
   84SAPC   H5R 9464   4.204  -0.118   2.689
   84SAPC   C26 9465   4.241   0.029   2.836
   84SAPC   H6R 9466   4.263  -0.049   2.911
   84SAPC   C27 9467   4.255   0.170   2.888
   84SAPC   H7R 9468   4.269   0.242   2.804
   84SAPC   H7S 9469   4.348   0.174   2.948
   84SAPC   C28 9470   4.149   0.225   2.980
   84SAPC   H8R 9471   4.078   0.295   2.934
   84SAPC   C29 9472   4.140   0.199   3.112
   84SAPC   H9R 9473   4.061   0.247   3.171
   84SAPC  C210 9474   4.234   0.111   3.190
   84SAPC  H10R 9475   4.277   0.030   3.127
   84SAPC  H10S 9476   4.175   0.057   3.268
   84SAPC  C211 9477   4.347   0.191   3.250
   84SAPC  H11R 9478   4.429   0.216   3.181
   84SAPC  C212 9479   4.355   0.233   3.377
   84SAPC  H12R 9480   4.441   0.293   3.409
   84SAPC  C213 9481   4.253   0.207   3.485
   84SAPC  H13R 9482   4.308   0.208   3.581
   84SAPC  H13S 9483   4.211   0.104   3.476
   84SAPC  C214 9484   4.139   0.306   3.490
   84SAPC  H14R 9485   4.148   0.393   3.423
   84SAPC  C215 9486   4.031   0.297   3.570
   84SAPC  H15R 9487   3.956   0.378   3.567
   84SAPC  C216 9488   4.001   0.188   3.670
   84SAPC  H16R 9489   3.973   0.093   3.619
   84SAPC  H16S 9490   3.914   0.218   3.731
   84SAPC  C217 9491   4.117   0.161   3.768
   84SAPC  H17R 9492   4.159   0.258   3.801
   84SAPC  H17S 9493   4.198   0.103   3.717
   84SAPC  C218 9494   4.077   0.080   3.891
   84SAPC  H18R 9495   4.046  -0.022   3.858
   84SAPC  H18S 9496   3.991   0.127   3.942
   84SAPC  C219 9497   4.196   0.068   3.988
   84SAPC  H19R 9498   4.227   0.170   4.021
   84SAPC  H19S 9499   4.282   0.023   3.934
   84SAPC  C220 9500   4.165  -0.018   4.109
   84SAPC  H20R 9501   4.089   0.032   4.172
   84SAPC  H20S 9502   4.256  -0.038   4.170
   84SAPC  H20T 9503   4.124  -0.116   4.074
   84SAPC   C33 9504   3.747   0.038   2.821
   84SAPC   H3X 9505   3.704  -0.064   2.831
   84SAPC   H3Y 9506   3.668   0.111   2.851
   84SAPC   C34 9507   3.864   0.045   2.920
   84SAPC   H4X 9508   3.922   0.137   2.899
   84SAPC   H4Y 9509   3.931  -0.042   2.902
   84SAPC   C35 9510   3.822   0.046   3.068
   84SAPC   H5X 9511   3.910   0.015   3.129
   84SAPC   H5Y 9512   3.742  -0.030   3.085
   84SAPC   C36 9513   3.776   0.184   3.117
   84SAPC   H6X 9514   3.681   0.214   3.066
   84SAPC   H6Y 9515   3.854   0.258   3.086
   84SAPC   C37 9516   3.760   0.193   3.270
   84SAPC   H7X 9517   3.781   0.298   3.302
   84SAPC   H7Y 9518   3.835   0.128   3.319
   84SAPC   C38 9519   3.619   0.156   3.318
   84SAPC   H8X 9520   3.591   0.057   3.274
   84SAPC   H8Y 9521   3.546   0.231   3.281
   84SAPC   C39 9522   3.607   0.147   3.471
   84SAPC   H9X 9523   3.687   0.080   3.509
   84SAPC   H9Y 9524   3.508   0.102   3.497
   84SAPC  C310 9525   3.619   0.282   3.542
   84SAPC  H10X 9526   3.538   0.350   3.507
   84SAPC  H10Y 9527   3.716   0.329   3.517
   84SAPC  C311 9528   3.610   0.266   3.695
   84SAPC  H11X 9529   3.687   0.194   3.728
   84SAPC  H11Y 9530   3.510   0.226   3.722
   84SAPC  C312 9531   3.633   0.397   3.770
   84SAPC  H12X 9532   3.552   0.467   3.743
   84SAPC  H12Y 9533   3.730   0.441   3.737
   84SAPC  C313 9534   3.632   0.378   3.923
   84SAPC  H13X 9535   3.564   0.294   3.949
   84SAPC  H13Y 9536   3.592   0.470   3.971
   84SAPC  C314 9537   3.771   0.353   3.981
   84SAPC  H14X 9538   3.821   0.271   3.924
   84SAPC  H14Y 9539   3.761   0.319   4.087
   84SAPC  C315 9540   3.856   0.481   3.977
   84SAPC  H15X 9541   3.833   0.537   4.069
   84SAPC  H15Y 9542   3.823   0.545   3.893
   84SAPC  C316 9543   4.004   0.454   3.951
   84SAPC  H16X 9544   4.016   0.445   3.841
   84SAPC  H16Y 9545   4.033   0.356   3.995
   84SAPC  C317 9546   4.105   0.559   4.003
   84SAPC  H17X 9547   4.182   0.570   3.923
   84SAPC  H17Y 9548   4.158   0.516   4.091
   84SAPC  C318 9549   4.056   0.699   4.038
   84SAPC  H18X 9550   4.084   0.771   3.958
   84SAPC  H18Y 9551   4.105   0.733   4.131
   84SAPC  H18Z 9552   3.947   0.707   4.057
   85POPC     N 9553   1.007   3.348   5.967
   85POPC   C12 9554   0.930   3.372   5.838
   85POPC  H12A 9555   0.994   3.354   5.752
   85POPC  H12B 9556   0.903   3.476   5.837
   85POPC   C13 9557   1.015   3.202   5.995
   85POPC  H13A 9558   1.069   3.183   6.087
   85POPC  H13B 9559   0.914   3.164   6.006
   85POPC  H13C 9560   1.063   3.148   5.914
   85POPC   C14 9561   1.141   3.410   5.969
   85POPC  H14A 9562   1.131   3.519   5.968
   85POPC  H14B 9563   1.195   3.388   6.060
   85POPC  H14C 9564   1.199   3.383   5.882
   85POPC   C15 9565   0.928   3.413   6.076
   85POPC  H15A 9566   0.826   3.374   6.076
   85POPC  H15B 9567   0.918   3.519   6.061
   85POPC  H15C 9568   0.971   3.395   6.173
   85POPC   C11 9569   0.796   3.297   5.811
   85POPC  H11A 9570   0.824   3.195   5.780
   85POPC  H11B 9571   0.746   3.346   5.723
   85POPC     P 9572   0.591   3.190   5.942
   85POPC   O13 9573   0.461   3.239   5.888
   85POPC   O14 9574   0.595   3.151   6.086
   85POPC   O12 9575   0.706   3.299   5.922
   85POPC   O11 9576   0.648   3.074   5.850
   85POPC    C1 9577   0.743   2.980   5.903
   85POPC    HA 9578   0.690   2.910   5.971
   85POPC    HB 9579   0.821   3.030   5.964
   85POPC    C2 9580   0.818   2.894   5.795
   85POPC    HS 9581   0.906   2.846   5.845
   85POPC   O21 9582   0.859   2.967   5.678
   85POPC   C21 9583   0.978   3.018   5.663
   85POPC   O22 9584   1.061   3.037   5.751
   85POPC   C22 9585   0.995   3.054   5.514
   85POPC   H2R 9586   0.995   3.165   5.509
   85POPC   H2S 9587   0.908   3.017   5.457
   85POPC    C3 9588   0.724   2.781   5.745
   85POPC    HX 9589   0.686   2.727   5.834
   85POPC    HY 9590   0.780   2.707   5.683
   85POPC   O31 9591   0.613   2.841   5.675
   85POPC   C31 9592   0.626   2.862   5.546
   85POPC   O32 9593   0.692   2.797   5.467
   85POPC   C32 9594   0.546   2.987   5.510
   85POPC   H2X 9595   0.589   3.072   5.569
   85POPC   H2Y 9596   0.440   2.973   5.541
   85POPC   C23 9597   1.125   2.997   5.452
   85POPC   H3R 9598   1.121   2.887   5.446
   85POPC   H3S 9599   1.209   3.021   5.520
   85POPC   C24 9600   1.159   3.054   5.312
   85POPC   H4R 9601   1.270   3.057   5.306
   85POPC   H4S 9602   1.120   3.158   5.303
   85POPC   C25 9603   1.113   2.969   5.193
   85POPC   H5R 9604   1.003   2.974   5.183
   85POPC   H5S 9605   1.141   2.865   5.219
   85POPC   C26 9606   1.182   2.999   5.058
   85POPC   H6R 9607   1.181   2.904   4.999
   85POPC   H6S 9608   1.288   3.027   5.073
   85POPC   C27 9609   1.110   3.105   4.973
   85POPC   H7R 9610   1.150   3.204   5.001
   85POPC   H7S 9611   1.002   3.103   4.997
   85POPC   C28 9612   1.123   3.090   4.819
   85POPC   H8R 9613   1.065   3.173   4.774
   85POPC   H8S 9614   1.071   2.996   4.790
   85POPC   C29 9615   1.263   3.091   4.763
   85POPC   H91 9616   1.342   3.123   4.832
   85POPC  C210 9617   1.295   3.056   4.637
   85POPC  H101 9618   1.400   3.063   4.604
   85POPC  C211 9619   1.197   3.011   4.531
   85POPC  H11R 9620   1.113   2.955   4.577
   85POPC  H11S 9621   1.247   2.940   4.462
   85POPC  C212 9622   1.135   3.125   4.449
   85POPC  H12R 9623   1.085   3.199   4.514
   85POPC  H12S 9624   1.056   3.079   4.385
   85POPC  C213 9625   1.234   3.197   4.356
   85POPC  H13R 9626   1.294   3.121   4.302
   85POPC  H13S 9627   1.305   3.260   4.415
   85POPC  C214 9628   1.159   3.285   4.254
   85POPC  H14R 9629   1.153   3.388   4.293
   85POPC  H14S 9630   1.054   3.248   4.246
   85POPC  C215 9631   1.215   3.280   4.111
   85POPC  H15R 9632   1.321   3.313   4.110
   85POPC  H15S 9633   1.156   3.352   4.048
   85POPC  C216 9634   1.202   3.139   4.051
   85POPC  H16R 9635   1.110   3.091   4.091
   85POPC  H16S 9636   1.288   3.079   4.086
   85POPC  C217 9637   1.195   3.133   3.898
   85POPC  H17R 9638   1.094   3.168   3.864
   85POPC  H17S 9639   1.204   3.026   3.869
   85POPC  C218 9640   1.302   3.213   3.824
   85POPC  H18R 9641   1.400   3.206   3.876
   85POPC  H18S 9642   1.275   3.321   3.818
   85POPC  H18T 9643   1.314   3.174   3.721
   85POPC   C33 9644   0.560   3.014   5.360
   85POPC   H3X 9645   0.511   2.932   5.303
   85POPC   H3Y 9646   0.668   3.012   5.333
   85POPC   C34 9647   0.499   3.149   5.321
   85POPC   H4X 9648   0.478   3.208   5.414
   85POPC   H4Y 9649   0.401   3.131   5.273
   85POPC   C35 9650   0.589   3.235   5.232
   85POPC   H5X 9651   0.671   3.276   5.295
   85POPC   H5Y 9652   0.529   3.321   5.196
   85POPC   C36 9653   0.653   3.163   5.112
   85POPC   H6X 9654   0.574   3.125   5.044
   85POPC   H6Y 9655   0.713   3.075   5.145
   85POPC   C37 9656   0.748   3.254   5.033
   85POPC   H7X 9657   0.791   3.197   4.948
   85POPC   H7Y 9658   0.833   3.283   5.099
   85POPC   C38 9659   0.680   3.381   4.981
   85POPC   H8X 9660   0.755   3.447   4.934
   85POPC   H8Y 9661   0.641   3.441   5.067
   85POPC   C39 9662   0.565   3.352   4.882
   85POPC   H9X 9663   0.519   3.448   4.853
   85POPC   H9Y 9664   0.486   3.291   4.933
   85POPC  C310 9665   0.610   3.280   4.754
   85POPC  H10X 9666   0.523   3.267   4.686
   85POPC  H10Y 9667   0.647   3.180   4.782
   85POPC  C311 9668   0.720   3.362   4.684
   85POPC  H11X 9669   0.805   3.369   4.756
   85POPC  H11Y 9670   0.678   3.462   4.667
   85POPC  C312 9671   0.786   3.310   4.556
   85POPC  H12X 9672   0.820   3.206   4.570
   85POPC  H12Y 9673   0.879   3.368   4.540
   85POPC  C313 9674   0.706   3.328   4.427
   85POPC  H13X 9675   0.683   3.434   4.408
   85POPC  H13Y 9676   0.608   3.277   4.439
   85POPC  C314 9677   0.788   3.269   4.311
   85POPC  H14X 9678   0.849   3.186   4.354
   85POPC  H14Y 9679   0.859   3.344   4.272
   85POPC  C315 9680   0.706   3.207   4.197
   85POPC  H15X 9681   0.692   3.282   4.117
   85POPC  H15Y 9682   0.604   3.183   4.236
   85POPC  C316 9683   0.767   3.078   4.143
   85POPC  H16X 9684   0.787   3.006   4.225
   85POPC  H16Y 9685   0.864   3.098   4.092
   85POPC  H16Z 9686   0.698   3.029   4.071
   86POPC     N 9687   1.941  -0.005   6.063
   86POPC   C12 9688   2.021  -0.067   5.950
   86POPC  H12A 9689   1.951  -0.119   5.885
   86POPC  H12B 9690   2.094  -0.137   5.986
   86POPC   C13 9691   1.818   0.050   5.999
   86POPC  H13A 9692   1.750  -0.030   5.973
   86POPC  H13B 9693   1.766   0.119   6.062
   86POPC  H13C 9694   1.846   0.100   5.905
   86POPC   C14 9695   1.897  -0.102   6.167
   86POPC  H14A 9696   1.834  -0.054   6.243
   86POPC  H14B 9697   1.831  -0.176   6.123
   86POPC  H14C 9698   1.979  -0.154   6.216
   86POPC   C15 9699   2.020   0.101   6.130
   86POPC  H15A 9700   2.107   0.059   6.179
   86POPC  H15B 9701   1.960   0.160   6.198
   86POPC  H15C 9702   2.058   0.170   6.054
   86POPC   C11 9703   2.098   0.034   5.859
   86POPC  H11A 9704   2.138  -0.024   5.773
   86POPC  H11B 9705   2.186   0.074   5.914
   86POPC     P 9706   2.051   0.289   5.814
   86POPC   O13 9707   2.093   0.321   5.952
   86POPC   O14 9708   1.946   0.375   5.755
   86POPC   O12 9709   2.011   0.136   5.810
   86POPC   O11 9710   2.176   0.294   5.717
   86POPC    C1 9711   2.191   0.202   5.608
   86POPC    HA 9712   2.098   0.146   5.581
   86POPC    HB 9713   2.264   0.126   5.642
   86POPC    C2 9714   2.246   0.268   5.479
   86POPC    HS 9715   2.304   0.356   5.511
   86POPC   O21 9716   2.139   0.301   5.384
   86POPC   C21 9717   2.168   0.369   5.271
   86POPC   O22 9718   2.278   0.407   5.239
   86POPC   C22 9719   2.043   0.382   5.179
   86POPC   H2R 9720   1.981   0.297   5.196
   86POPC   H2S 9721   2.088   0.374   5.077
   86POPC    C3 9722   2.350   0.171   5.419
   86POPC    HX 9723   2.427   0.158   5.498
   86POPC    HY 9724   2.402   0.217   5.332
   86POPC   O31 9725   2.291   0.042   5.394
   86POPC   C31 9726   2.257   0.024   5.267
   86POPC   O32 9727   2.283   0.099   5.176
   86POPC   C32 9728   2.178  -0.106   5.253
   86POPC   H2X 9729   2.078  -0.091   5.295
   86POPC   H2Y 9730   2.230  -0.182   5.315
   86POPC   C23 9731   1.945   0.504   5.178
   86POPC   H3R 9732   1.942   0.544   5.074
   86POPC   H3S 9733   1.995   0.580   5.241
   86POPC   C24 9734   1.794   0.500   5.230
   86POPC   H4R 9735   1.779   0.609   5.213
   86POPC   H4S 9736   1.795   0.499   5.338
   86POPC   C25 9737   1.661   0.433   5.170
   86POPC   H5R 9738   1.665   0.393   5.070
   86POPC   H5S 9739   1.595   0.521   5.156
   86POPC   C26 9740   1.561   0.344   5.254
   86POPC   H6R 9741   1.476   0.409   5.283
   86POPC   H6S 9742   1.609   0.315   5.347
   86POPC   C27 9743   1.497   0.208   5.205
   86POPC   H7R 9744   1.400   0.196   5.258
   86POPC   H7S 9745   1.558   0.126   5.246
   86POPC   C28 9746   1.475   0.178   5.054
   86POPC   H8R 9747   1.552   0.230   4.995
   86POPC   H8S 9748   1.377   0.221   5.024
   86POPC   C29 9749   1.478   0.029   5.024
   86POPC   H91 9750   1.423  -0.035   5.095
   86POPC  C210 9751   1.543  -0.033   4.923
   86POPC  H101 9752   1.540  -0.142   4.916
   86POPC  C211 9753   1.629   0.025   4.815
   86POPC  H11R 9754   1.711  -0.046   4.789
   86POPC  H11S 9755   1.678   0.115   4.850
   86POPC  C212 9756   1.552   0.062   4.687
   86POPC  H12R 9757   1.476   0.139   4.713
   86POPC  H12S 9758   1.500  -0.026   4.646
   86POPC  C213 9759   1.646   0.120   4.580
   86POPC  H13R 9760   1.713   0.195   4.627
   86POPC  H13S 9761   1.585   0.173   4.504
   86POPC  C214 9762   1.730   0.013   4.509
   86POPC  H14R 9763   1.662  -0.053   4.449
   86POPC  H14S 9764   1.781  -0.051   4.584
   86POPC  C215 9765   1.837   0.071   4.415
   86POPC  H15R 9766   1.905  -0.012   4.384
   86POPC  H15S 9767   1.899   0.146   4.470
   86POPC  C216 9768   1.779   0.134   4.288
   86POPC  H16R 9769   1.719   0.224   4.316
   86POPC  H16S 9770   1.710   0.061   4.240
   86POPC  C217 9771   1.887   0.174   4.189
   86POPC  H17R 9772   1.956   0.088   4.178
   86POPC  H17S 9773   1.945   0.260   4.232
   86POPC  C218 9774   1.836   0.212   4.050
   86POPC  H18R 9775   1.921   0.240   3.983
   86POPC  H18S 9776   1.767   0.298   4.055
   86POPC  H18T 9777   1.782   0.127   4.004
   86POPC   C33 9778   2.178  -0.154   5.105
   86POPC   H3X 9779   2.147  -0.260   5.100
   86POPC   H3Y 9780   2.282  -0.145   5.069
   86POPC   C34 9781   2.099  -0.075   5.000
   86POPC   H4X 9782   2.122   0.033   5.012
   86POPC   H4Y 9783   1.989  -0.088   5.013
   86POPC   C35 9784   2.142  -0.117   4.858
   86POPC   H5X 9785   2.116  -0.224   4.844
   86POPC   H5Y 9786   2.252  -0.107   4.849
   86POPC   C36 9787   2.076  -0.035   4.747
   86POPC   H6X 9788   1.966  -0.035   4.763
   86POPC   H6Y 9789   2.095  -0.082   4.648
   86POPC   C37 9790   2.124   0.111   4.740
   86POPC   H7X 9791   2.129   0.158   4.841
   86POPC   H7Y 9792   2.048   0.166   4.681
   86POPC   C38 9793   2.257   0.132   4.667
   86POPC   H8X 9794   2.245   0.087   4.566
   86POPC   H8Y 9795   2.341   0.079   4.718
   86POPC   C39 9796   2.287   0.282   4.655
   86POPC   H9X 9797   2.317   0.320   4.756
   86POPC   H9Y 9798   2.194   0.335   4.626
   86POPC  C310 9799   2.396   0.319   4.554
   86POPC  H10X 9800   2.494   0.289   4.597
   86POPC  H10Y 9801   2.398   0.430   4.542
   86POPC  C311 9802   2.383   0.252   4.416
   86POPC  H11X 9803   2.409   0.144   4.429
   86POPC  H11Y 9804   2.458   0.297   4.348
   86POPC  C312 9805   2.248   0.262   4.344
   86POPC  H12X 9806   2.246   0.357   4.286
   86POPC  H12Y 9807   2.163   0.262   4.415
   86POPC  C313 9808   2.229   0.150   4.242
   86POPC  H13X 9809   2.145   0.181   4.176
   86POPC  H13Y 9810   2.200   0.055   4.293
   86POPC  C314 9811   2.351   0.128   4.152
   86POPC  H14X 9812   2.429   0.070   4.206
   86POPC  H14Y 9813   2.393   0.228   4.126
   86POPC  C315 9814   2.313   0.057   4.023
   86POPC  H15X 9815   2.396   0.072   3.951
   86POPC  H15Y 9816   2.223   0.107   3.979
   86POPC  C316 9817   2.286  -0.092   4.039
   86POPC  H16X 9818   2.284  -0.142   3.940
   86POPC  H16Y 9819   2.188  -0.110   4.089
   86POPC  H16Z 9820   2.366  -0.139   4.100
   87POPC     N 9821   4.745   2.034   2.061
   87POPC   C12 9822   4.643   2.142   2.093
   87POPC  H12A 9823   4.674   2.199   2.181
   87POPC  H12B 9824   4.547   2.096   2.118
   87POPC   C13 9825   4.754   1.933   2.170
   87POPC  H13A 9826   4.660   1.879   2.185
   87POPC  H13B 9827   4.820   1.851   2.141
   87POPC  H13C 9828   4.786   1.973   2.264
   87POPC   C14 9829   4.704   1.965   1.933
   87POPC  H14A 9830   4.607   1.916   1.943
   87POPC  H14B 9831   4.694   2.037   1.852
   87POPC  H14C 9832   4.774   1.887   1.902
   87POPC   C15 9833   4.879   2.097   2.041
   87POPC  H15A 9834   4.917   2.142   2.131
   87POPC  H15B 9835   4.871   2.179   1.971
   87POPC  H15C 9836   4.951   2.026   2.003
   87POPC   C11 9837   4.623   2.249   1.983
   87POPC  H11A 9838   4.527   2.304   2.003
   87POPC  H11B 9839   4.609   2.201   1.884
   87POPC     P 9840   4.741   2.455   2.084
   87POPC   O13 9841   4.676   2.406   2.206
   87POPC   O14 9842   4.684   2.574   2.019
   87POPC   O12 9843   4.736   2.338   1.976
   87POPC   O11 9844   4.894   2.466   2.108
   87POPC    C1 9845   4.982   2.523   2.011
   87POPC    HA 9846   4.939   2.614   1.964
   87POPC    HB 9847   5.004   2.449   1.931
   87POPC    C2 9848   5.115   2.563   2.083
   87POPC    HS 9849   5.198   2.566   2.009
   87POPC   O21 9850   5.147   2.473   2.191
   87POPC   C21 9851   5.139   2.344   2.169
   87POPC   O22 9852   5.139   2.287   2.061
   87POPC   C22 9853   5.127   2.276   2.304
   87POPC   H2R 9854   5.033   2.318   2.347
   87POPC   H2S 9855   5.213   2.309   2.366
   87POPC    C3 9856   5.096   2.706   2.142
   87POPC    HX 9857   5.098   2.776   2.056
   87POPC    HY 9858   5.180   2.734   2.209
   87POPC   O31 9859   4.967   2.717   2.204
   87POPC   C31 9860   4.962   2.706   2.334
   87POPC   O32 9861   5.057   2.699   2.410
   87POPC   C32 9862   4.814   2.713   2.376
   87POPC   H2X 9863   4.753   2.727   2.284
   87POPC   H2Y 9864   4.805   2.804   2.437
   87POPC   C23 9865   5.121   2.121   2.305
   87POPC   H3R 9866   5.215   2.080   2.261
   87POPC   H3S 9867   5.035   2.083   2.247
   87POPC   C24 9868   5.109   2.068   2.449
   87POPC   H4R 9869   5.197   2.109   2.502
   87POPC   H4S 9870   5.118   1.957   2.451
   87POPC   C25 9871   4.981   2.112   2.523
   87POPC   H5R 9872   4.918   2.023   2.542
   87POPC   H5S 9873   4.922   2.180   2.458
   87POPC   C26 9874   5.006   2.183   2.657
   87POPC   H6R 9875   5.048   2.109   2.728
   87POPC   H6S 9876   4.908   2.213   2.699
   87POPC   C27 9877   5.097   2.308   2.650
   87POPC   H7R 9878   5.060   2.371   2.566
   87POPC   H7S 9879   5.202   2.281   2.627
   87POPC   C28 9880   5.091   2.397   2.777
   87POPC   H8R 9881   4.988   2.390   2.817
   87POPC   H8S 9882   5.105   2.502   2.742
   87POPC   C29 9883   5.191   2.369   2.886
   87POPC   H91 9884   5.277   2.307   2.857
   87POPC  C210 9885   5.186   2.420   3.010
   87POPC  H101 9886   5.265   2.394   3.082
   87POPC  C211 9887   5.082   2.515   3.062
   87POPC  H11R 9888   5.003   2.534   2.987
   87POPC  H11S 9889   5.127   2.615   3.082
   87POPC  C212 9890   5.013   2.467   3.191
   87POPC  H12R 9891   4.960   2.371   3.171
   87POPC  H12S 9892   4.937   2.543   3.220
   87POPC  C213 9893   5.110   2.448   3.309
   87POPC  H13R 9894   5.171   2.540   3.319
   87POPC  H13S 9895   5.180   2.365   3.287
   87POPC  C214 9896   5.041   2.424   3.443
   87POPC  H14R 9897   4.969   2.507   3.459
   87POPC  H14S 9898   5.116   2.428   3.525
   87POPC  C215 9899   4.967   2.290   3.450
   87POPC  H15R 9900   5.035   2.213   3.492
   87POPC  H15S 9901   4.942   2.257   3.347
   87POPC  C216 9902   4.835   2.299   3.527
   87POPC  H16R 9903   4.770   2.214   3.496
   87POPC  H16S 9904   4.783   2.393   3.499
   87POPC  C217 9905   4.851   2.293   3.679
   87POPC  H17R 9906   4.750   2.298   3.725
   87POPC  H17S 9907   4.909   2.380   3.715
   87POPC  C218 9908   4.918   2.163   3.723
   87POPC  H18R 9909   4.914   2.088   3.641
   87POPC  H18S 9910   4.865   2.120   3.811
   87POPC  H18T 9911   5.024   2.181   3.749
   87POPC   C33 9912   4.761   2.590   2.454
   87POPC   H3X 9913   4.788   2.495   2.404
   87POPC   H3Y 9914   4.650   2.597   2.454
   87POPC   C34 9915   4.808   2.588   2.599
   87POPC   H4X 9916   4.783   2.687   2.642
   87POPC   H4Y 9917   4.919   2.579   2.602
   87POPC   C35 9918   4.746   2.484   2.693
   87POPC   H5X 9919   4.801   2.389   2.678
   87POPC   H5Y 9920   4.640   2.467   2.665
   87POPC   C36 9921   4.750   2.529   2.840
   87POPC   H6X 9922   4.675   2.611   2.853
   87POPC   H6Y 9923   4.849   2.575   2.862
   87POPC   C37 9924   4.720   2.416   2.940
   87POPC   H7X 9925   4.811   2.355   2.957
   87POPC   H7Y 9926   4.644   2.350   2.893
   87POPC   C38 9927   4.665   2.466   3.075
   87POPC   H8X 9928   4.659   2.577   3.071
   87POPC   H8Y 9929   4.736   2.443   3.157
   87POPC   C39 9930   4.528   2.405   3.110
   87POPC   H9X 9931   4.546   2.313   3.169
   87POPC   H9Y 9932   4.478   2.375   3.015
   87POPC  C310 9933   4.427   2.495   3.183
   87POPC  H10X 9934   4.350   2.429   3.229
   87POPC  H10Y 9935   4.370   2.556   3.111
   87POPC  C311 9936   4.484   2.580   3.296
   87POPC  H11X 9937   4.404   2.651   3.330
   87POPC  H11Y 9938   4.571   2.641   3.264
   87POPC  C312 9939   4.520   2.489   3.412
   87POPC  H12X 9940   4.603   2.421   3.383
   87POPC  H12Y 9941   4.431   2.424   3.431
   87POPC  C313 9942   4.553   2.563   3.540
   87POPC  H13X 9943   4.491   2.655   3.549
   87POPC  H13Y 9944   4.661   2.590   3.543
   87POPC  C314 9945   4.520   2.471   3.655
   87POPC  H14X 9946   4.564   2.372   3.631
   87POPC  H14Y 9947   4.410   2.464   3.662
   87POPC  C315 9948   4.567   2.512   3.792
   87POPC  H15X 9949   4.525   2.612   3.817
   87POPC  H15Y 9950   4.677   2.516   3.791
   87POPC  C316 9951   4.517   2.408   3.891
   87POPC  H16X 9952   4.577   2.314   3.886
   87POPC  H16Y 9953   4.411   2.384   3.870
   87POPC  H16Z 9954   4.521   2.448   3.993
   88POPC     N 9955   5.110   4.727   2.000
   88POPC   C12 9956   5.030   4.601   1.976
   88POPC  H12A 9957   5.093   4.528   1.926
   88POPC  H12B 9958   4.946   4.623   1.912
   88POPC   C13 9959   5.239   4.687   2.065
   88POPC  H13A 9960   5.298   4.772   2.094
   88POPC  H13B 9961   5.216   4.626   2.152
   88POPC  H13C 9962   5.299   4.625   1.998
   88POPC   C14 9963   5.135   4.795   1.871
   88POPC  H14A 9964   5.202   4.738   1.808
   88POPC  H14B 9965   5.043   4.814   1.817
   88POPC  H14C 9966   5.181   4.892   1.888
   88POPC   C15 9967   5.035   4.821   2.088
   88POPC  H15A 9968   4.936   4.842   2.049
   88POPC  H15B 9969   5.084   4.918   2.093
   88POPC  H15C 9970   5.026   4.778   2.187
   88POPC   C11 9971   4.974   4.532   2.102
   88POPC  H11A 9972   4.909   4.451   2.061
   88POPC  H11B 9973   4.908   4.599   2.161
   88POPC     P 9974   5.077   4.334   2.233
   88POPC   O13 9975   5.137   4.316   2.367
   88POPC   O14 9976   5.123   4.248   2.121
   88POPC   O12 9977   5.081   4.485   2.186
   88POPC   O11 9978   4.920   4.315   2.239
   88POPC    C1 9979   4.859   4.257   2.351
   88POPC    HA 9980   4.910   4.163   2.381
   88POPC    HB 9981   4.760   4.219   2.320
   88POPC    C2 9982   4.831   4.362   2.467
   88POPC    HS 9983   4.929   4.309   2.490
   88POPC   O21 9984   4.925   4.456   2.524
   88POPC   C21 9985   4.879   4.530   2.624
   88POPC   O22 9986   4.762   4.551   2.647
   88POPC   C22 9987   4.991   4.578   2.716
   88POPC   H2R 9988   4.987   4.513   2.805
   88POPC   H2S 9989   4.964   4.679   2.750
   88POPC    C3 9990   4.765   4.284   2.586
   88POPC    HX 9991   4.715   4.195   2.541
   88POPC    HY 9992   4.681   4.344   2.626
   88POPC   O31 9993   4.865   4.244   2.682
   88POPC   C31 9994   4.840   4.278   2.805
   88POPC   O32 9995   4.739   4.331   2.846
   88POPC   C32 9996   4.959   4.241   2.892
   88POPC   H2X 9997   5.037   4.318   2.877
   88POPC   H2Y 9998   5.000   4.146   2.853
   88POPC   C23 9999   5.133   4.574   2.657
   88POPC   H3R10000   5.147   4.484   2.593
   88POPC   H3S10001   5.205   4.562   2.741
   88POPC   C2410002   5.172   4.701   2.579
   88POPC   H4R10003   5.112   4.701   2.485
   88POPC   H4S10004   5.279   4.690   2.550
   88POPC   C2510005   5.152   4.838   2.648
   88POPC   H5R10006   5.048   4.872   2.631
   88POPC   H5S10007   5.219   4.911   2.597
   88POPC   C2610008   5.174   4.849   2.801
   88POPC   H6R10009   5.091   4.796   2.853
   88POPC   H6S10010   5.165   4.956   2.830
   88POPC   C2710011   5.306   4.795   2.857
   88POPC   H7R10012   5.382   4.877   2.847
   88POPC   H7S10013   5.344   4.710   2.798
   88POPC   C2810014   5.295   4.757   3.006
   88POPC   H8R10015   5.252   4.845   3.059
   88POPC   H8S10016   5.399   4.745   3.045
   88POPC   C2910017   5.218   4.630   3.037
   88POPC   H9110018   5.231   4.549   2.963
   88POPC  C21010019   5.141   4.608   3.144
   88POPC  H10110020   5.098   4.507   3.160
   88POPC  C21110021   5.113   4.704   3.258
   88POPC  H11R10022   5.005   4.697   3.285
   88POPC  H11S10023   5.130   4.810   3.230
   88POPC  C21210024   5.197   4.672   3.384
   88POPC  H12R10025   5.198   4.563   3.402
   88POPC  H12S10026   5.147   4.719   3.472
   88POPC  C21310027   5.340   4.727   3.377
   88POPC  H13R10028   5.338   4.837   3.390
   88POPC  H13S10029   5.383   4.706   3.276
   88POPC  C21410030   5.435   4.664   3.481
   88POPC  H14R10031   5.532   4.718   3.483
   88POPC  H14S10032   5.454   4.559   3.448
   88POPC  C21510033   5.378   4.651   3.623
   88POPC  H15R10034   5.455   4.605   3.690
   88POPC  H15S10035   5.293   4.580   3.618
   88POPC  C21610036   5.327   4.781   3.688
   88POPC  H16R10037   5.277   4.845   3.612
   88POPC  H16S10038   5.413   4.839   3.728
   88POPC  C21710039   5.226   4.750   3.798
   88POPC  H17R10040   5.275   4.687   3.876
   88POPC  H17S10041   5.144   4.689   3.754
   88POPC  C21810042   5.165   4.873   3.864
   88POPC  H18R10043   5.094   4.843   3.944
   88POPC  H18S10044   5.109   4.934   3.789
   88POPC  H18T10045   5.245   4.936   3.908
   88POPC   C3310046   4.919   4.230   3.041
   88POPC   H3X10047   4.810   4.216   3.055
   88POPC   H3Y10048   4.945   4.328   3.086
   88POPC   C3410049   4.988   4.113   3.111
   88POPC   H4X10050   5.086   4.152   3.139
   88POPC   H4Y10051   4.999   4.031   3.035
   88POPC   C3510052   4.931   4.044   3.236
   88POPC   H5X10053   5.003   3.963   3.262
   88POPC   H5Y10054   4.836   3.992   3.212
   88POPC   C3610055   4.912   4.130   3.361
   88POPC   H6X10056   4.966   4.081   3.445
   88POPC   H6Y10057   4.804   4.132   3.387
   88POPC   C3710058   4.961   4.274   3.347
   88POPC   H7X10059   4.894   4.324   3.274
   88POPC   H7Y10060   5.065   4.282   3.310
   88POPC   C3810061   4.947   4.352   3.477
   88POPC   H8X10062   5.047   4.366   3.523
   88POPC   H8Y10063   4.887   4.290   3.548
   88POPC   C3910064   4.880   4.487   3.459
   88POPC   H9X10065   4.823   4.490   3.364
   88POPC   H9Y10066   4.956   4.567   3.452
   88POPC  C31010067   4.784   4.516   3.573
   88POPC  H10X10068   4.710   4.433   3.578
   88POPC  H10Y10069   4.728   4.610   3.552
   88POPC  C31110070   4.855   4.526   3.707
   88POPC  H11X10071   4.935   4.603   3.698
   88POPC  H11Y10072   4.904   4.429   3.733
   88POPC  C31210073   4.758   4.564   3.818
   88POPC  H12X10074   4.697   4.476   3.846
   88POPC  H12Y10075   4.688   4.642   3.779
   88POPC  C31310076   4.830   4.621   3.940
   88POPC  H13X10077   4.880   4.715   3.909
   88POPC  H13Y10078   4.909   4.550   3.973
   88POPC  C31410079   4.734   4.649   4.055
   88POPC  H14X10080   4.713   4.554   4.108
   88POPC  H14Y10081   4.637   4.686   4.014
   88POPC  C31510082   4.787   4.754   4.154
   88POPC  H15X10083   4.797   4.851   4.100
   88POPC  H15Y10084   4.889   4.724   4.187
   88POPC  C31610085   4.698   4.772   4.277
   88POPC  H16X10086   4.738   4.853   4.342
   88POPC  H16Y10087   4.695   4.678   4.337
   88POPC  H16Z10088   4.594   4.798   4.248
   89SOPE     N10089   2.607   4.554   6.316
   89SOPE   HN110090   2.663   4.643   6.306
   89SOPE   HN210091   2.655   4.489   6.382
   89SOPE   HN310092   2.590   4.512   6.220
   89SOPE   C1210093   2.471   4.596   6.366
   89SOPE  H12A10094   2.482   4.696   6.413
   89SOPE  H12B10095   2.441   4.523   6.444
   89SOPE   C1110096   2.367   4.601   6.252
   89SOPE  H11A10097   2.277   4.656   6.288
   89SOPE  H11B10098   2.333   4.496   6.231
   89SOPE     P10099   2.463   4.585   6.010
   89SOPE   O1310100   2.530   4.464   6.064
   89SOPE   O1410101   2.540   4.679   5.926
   89SOPE   O1210102   2.418   4.668   6.136
   89SOPE   O1110103   2.321   4.548   5.952
   89SOPE    C110104   2.232   4.651   5.904
   89SOPE    HA10105   2.265   4.753   5.934
   89SOPE    HB10106   2.130   4.637   5.947
   89SOPE    C210107   2.226   4.647   5.750
   89SOPE    HS10108   2.158   4.564   5.720
   89SOPE   O2110109   2.358   4.630   5.700
   89SOPE   C2110110   2.388   4.522   5.634
   89SOPE   O2210111   2.315   4.427   5.611
   89SOPE   C2210112   2.530   4.543   5.580
   89SOPE   H2R10113   2.595   4.567   5.668
   89SOPE   H2S10114   2.532   4.631   5.514
   89SOPE    C310115   2.172   4.778   5.689
   89SOPE    HX10116   2.241   4.863   5.712
   89SOPE    HY10117   2.076   4.801   5.739
   89SOPE   O3110118   2.151   4.759   5.547
   89SOPE   C3110119   2.261   4.775   5.473
   89SOPE   O3210120   2.364   4.826   5.511
   89SOPE   C3210121   2.234   4.720   5.332
   89SOPE   H2X10122   2.168   4.790   5.278
   89SOPE   H2Y10123   2.179   4.624   5.345
   89SOPE   C2310124   2.585   4.419   5.507
   89SOPE   H3R10125   2.573   4.331   5.574
   89SOPE   H3S10126   2.694   4.435   5.492
   89SOPE   C2410127   2.520   4.388   5.371
   89SOPE   H4R10128   2.504   4.279   5.365
   89SOPE   H4S10129   2.417   4.430   5.367
   89SOPE   C2510130   2.602   4.435   5.250
   89SOPE   H5R10131   2.615   4.545   5.254
   89SOPE   H5S10132   2.704   4.392   5.253
   89SOPE   C2610133   2.539   4.396   5.115
   89SOPE   H6R10134   2.534   4.285   5.107
   89SOPE   H6S10135   2.435   4.434   5.112
   89SOPE   C2710136   2.619   4.452   4.996
   89SOPE   H7R10137   2.635   4.560   5.012
   89SOPE   H7S10138   2.720   4.405   4.996
   89SOPE   C2810139   2.554   4.427   4.858
   89SOPE   H8R10140   2.625   4.467   4.782
   89SOPE   H8S10141   2.548   4.317   4.843
   89SOPE   C2910142   2.417   4.487   4.835
   89SOPE   H9110143   2.363   4.519   4.926
   89SOPE  C21010144   2.359   4.506   4.715
   89SOPE  H10110145   2.257   4.548   4.711
   89SOPE  C21110146   2.420   4.472   4.581
   89SOPE  H11R10147   2.523   4.434   4.593
   89SOPE  H11S10148   2.427   4.565   4.520
   89SOPE  C21210149   2.342   4.366   4.500
   89SOPE  H12R10150   2.235   4.396   4.490
   89SOPE  H12S10151   2.346   4.270   4.556
   89SOPE  C21310152   2.398   4.336   4.361
   89SOPE  H13R10153   2.347   4.248   4.317
   89SOPE  H13S10154   2.505   4.309   4.370
   89SOPE  C21410155   2.383   4.452   4.261
   89SOPE  H14R10156   2.434   4.421   4.167
   89SOPE  H14S10157   2.435   4.542   4.300
   89SOPE  C21510158   2.235   4.484   4.233
   89SOPE  H15R10159   2.193   4.540   4.319
   89SOPE  H15S10160   2.179   4.388   4.225
   89SOPE  C21610161   2.212   4.566   4.104
   89SOPE  H16R10162   2.259   4.666   4.116
   89SOPE  H16S10163   2.102   4.582   4.093
   89SOPE  C21710164   2.265   4.500   3.976
   89SOPE  H17R10165   2.376   4.501   3.979
   89SOPE  H17S10166   2.235   4.563   3.889
   89SOPE  C21810167   2.222   4.356   3.952
   89SOPE  H18R10168   2.259   4.320   3.854
   89SOPE  H18S10169   2.111   4.352   3.952
   89SOPE  H18T10170   2.261   4.289   4.032
   89SOPE   C3310171   2.362   4.689   5.250
   89SOPE   H3X10172   2.335   4.632   5.157
   89SOPE   H3Y10173   2.424   4.623   5.312
   89SOPE   C3410174   2.451   4.808   5.214
   89SOPE   H4X10175   2.557   4.782   5.236
   89SOPE   H4Y10176   2.425   4.893   5.280
   89SOPE   C3510177   2.443   4.855   5.068
   89SOPE   H5X10178   2.452   4.966   5.077
   89SOPE   H5Y10179   2.346   4.830   5.020
   89SOPE   C3610180   2.560   4.818   4.977
   89SOPE   H6X10181   2.543   4.722   4.925
   89SOPE   H6Y10182   2.652   4.809   5.040
   89SOPE   C3710183   2.584   4.928   4.873
   89SOPE   H7X10184   2.565   5.029   4.918
   89SOPE   H7Y10185   2.512   4.917   4.789
   89SOPE   C3810186   2.728   4.927   4.826
   89SOPE   H8X10187   2.751   4.831   4.776
   89SOPE   H8Y10188   2.794   4.932   4.916
   89SOPE   C3910189   2.762   5.046   4.737
   89SOPE   H9X10190   2.868   5.034   4.704
   89SOPE   H9Y10191   2.754   5.141   4.794
   89SOPE  C31010192   2.677   5.057   4.610
   89SOPE  H10X10193   2.730   5.127   4.542
   89SOPE  H10Y10194   2.577   5.099   4.632
   89SOPE  C31110195   2.667   4.926   4.534
   89SOPE  H11X10196   2.582   4.865   4.573
   89SOPE  H11Y10197   2.761   4.869   4.551
   89SOPE  C31210198   2.653   4.953   4.385
   89SOPE  H12X10199   2.744   5.007   4.350
   89SOPE  H12Y10200   2.566   5.020   4.367
   89SOPE  C31310201   2.637   4.825   4.302
   89SOPE  H13X10202   2.657   4.853   4.196
   89SOPE  H13Y10203   2.530   4.793   4.308
   89SOPE  C31410204   2.722   4.705   4.346
   89SOPE  H14X10205   2.690   4.615   4.289
   89SOPE  H14Y10206   2.699   4.682   4.452
   89SOPE  C31510207   2.875   4.719   4.332
   89SOPE  H15X10208   2.921   4.654   4.409
   89SOPE  H15Y10209   2.907   4.823   4.355
   89SOPE  C31610210   2.930   4.674   4.196
   89SOPE  H16X10211   3.029   4.626   4.210
   89SOPE  H16Y10212   2.863   4.596   4.153
   89SOPE  C31710213   2.944   4.791   4.098
   89SOPE  H17X10214   3.042   4.841   4.116
   89SOPE  H17Y10215   2.864   4.863   4.121
   89SOPE  C31810216   2.933   4.755   3.950
   89SOPE  H18X10217   2.909   4.844   3.888
   89SOPE  H18Y10218   3.028   4.711   3.913
   89SOPE  H18Z10219   2.851   4.682   3.933
   90SOPE     N10220   0.432   2.678   6.363
   90SOPE   HN110221   0.449   2.647   6.459
   90SOPE   HN210222   0.403   2.598   6.302
   90SOPE   HN310223   0.520   2.720   6.319
   90SOPE   C1210224   0.325   2.784   6.361
   90SOPE  H12A10225   0.376   2.882   6.369
   90SOPE  H12B10226   0.258   2.770   6.448
   90SOPE   C1110227   0.245   2.774   6.230
   90SOPE  H11A10228   0.182   2.866   6.222
   90SOPE  H11B10229   0.175   2.687   6.232
   90SOPE     P10230   0.373   2.640   6.039
   90SOPE   O1310231   0.339   2.526   6.128
   90SOPE   O1410232   0.516   2.655   6.008
   90SOPE   O1210233   0.332   2.769   6.119
   90SOPE   O1110234   0.278   2.643   5.911
   90SOPE    C110235   0.165   2.732   5.908
   90SOPE    HA10236   0.201   2.837   5.922
   90SOPE    HB10237   0.090   2.709   5.988
   90SOPE    C210238   0.091   2.730   5.771
   90SOPE    HS10239   0.036   2.633   5.763
   90SOPE   O2110240   0.188   2.748   5.667
   90SOPE   C2110241   0.236   2.636   5.620
   90SOPE   O2210242   0.174   2.531   5.603
   90SOPE   C2210243   0.382   2.665   5.587
   90SOPE   H2R10244   0.420   2.718   5.678
   90SOPE   H2S10245   0.386   2.735   5.502
   90SOPE    C310246  -0.012   2.843   5.752
   90SOPE    HX10247   0.041   2.938   5.779
   90SOPE    HY10248  -0.100   2.831   5.819
   90SOPE   O3110249  -0.053   2.839   5.613
   90SOPE   C3110250  -0.032   2.950   5.545
   90SOPE   O3210251  -0.046   3.063   5.588
   90SOPE   C3210252   0.013   2.914   5.402
   90SOPE   H2X10253  -0.077   2.913   5.337
   90SOPE   H2Y10254   0.059   2.813   5.403
   90SOPE   C2310255   0.470   2.542   5.567
   90SOPE   H3R10256   0.462   2.480   5.660
   90SOPE   H3S10257   0.577   2.574   5.559
   90SOPE   C2410258   0.436   2.453   5.447
   90SOPE   H4R10259   0.516   2.379   5.432
   90SOPE   H4S10260   0.344   2.396   5.474
   90SOPE   C2510261   0.417   2.526   5.314
   90SOPE   H5R10262   0.437   2.634   5.328
   90SOPE   H5S10263   0.491   2.487   5.241
   90SOPE   C2610264   0.275   2.505   5.260
   90SOPE   H6R10265   0.244   2.407   5.303
   90SOPE   H6S10266   0.206   2.581   5.303
   90SOPE   C2710267   0.260   2.489   5.107
   90SOPE   H7R10268   0.356   2.516   5.059
   90SOPE   H7S10269   0.243   2.381   5.088
   90SOPE   C2810270   0.147   2.570   5.040
   90SOPE   H8R10271   0.066   2.582   5.114
   90SOPE   H8S10272   0.188   2.671   5.020
   90SOPE   C2910273   0.090   2.512   4.913
   90SOPE   H9110274   0.056   2.407   4.921
   90SOPE  C21010275   0.078   2.574   4.793
   90SOPE  H10110276   0.028   2.519   4.711
   90SOPE  C21110277   0.120   2.715   4.758
   90SOPE  H11R10278   0.162   2.768   4.846
   90SOPE  H11S10279   0.032   2.774   4.725
   90SOPE  C21210280   0.228   2.723   4.647
   90SOPE  H12R10281   0.271   2.825   4.646
   90SOPE  H12S10282   0.180   2.707   4.548
   90SOPE  C21310283   0.342   2.623   4.667
   90SOPE  H13R10284   0.299   2.520   4.668
   90SOPE  H13S10285   0.388   2.642   4.766
   90SOPE  C21410286   0.451   2.624   4.560
   90SOPE  H14R10287   0.536   2.559   4.589
   90SOPE  H14S10288   0.487   2.726   4.550
   90SOPE  C21510289   0.397   2.584   4.424
   90SOPE  H15R10290   0.325   2.660   4.389
   90SOPE  H15S10291   0.344   2.488   4.440
   90SOPE  C21610292   0.499   2.559   4.313
   90SOPE  H16R10293   0.439   2.513   4.232
   90SOPE  H16S10294   0.574   2.484   4.345
   90SOPE  C21710295   0.560   2.687   4.255
   90SOPE  H17R10296   0.647   2.717   4.317
   90SOPE  H17S10297   0.483   2.767   4.261
   90SOPE  C21810298   0.606   2.675   4.110
   90SOPE  H18R10299   0.684   2.597   4.100
   90SOPE  H18S10300   0.648   2.772   4.075
   90SOPE  H18T10301   0.520   2.649   4.044
   90SOPE   C3310302   0.114   3.019   5.351
   90SOPE   H3X10303   0.201   3.024   5.419
   90SOPE   H3Y10304   0.061   3.117   5.350
   90SOPE   C3410305   0.165   2.996   5.208
   90SOPE   H4X10306   0.222   3.087   5.177
   90SOPE   H4Y10307   0.080   2.987   5.137
   90SOPE   C3510308   0.259   2.877   5.193
   90SOPE   H5X10309   0.199   2.786   5.179
   90SOPE   H5Y10310   0.315   2.862   5.288
   90SOPE   C3610311   0.361   2.897   5.078
   90SOPE   H6X10312   0.425   2.983   5.104
   90SOPE   H6Y10313   0.308   2.923   4.984
   90SOPE   C3710314   0.450   2.774   5.054
   90SOPE   H7X10315   0.401   2.706   4.981
   90SOPE   H7Y10316   0.457   2.720   5.151
   90SOPE   C3810317   0.595   2.800   5.011
   90SOPE   H8X10318   0.646   2.701   5.019
   90SOPE   H8Y10319   0.645   2.868   5.083
   90SOPE   C3910320   0.608   2.853   4.868
   90SOPE   H9X10321   0.638   2.960   4.873
   90SOPE   H9Y10322   0.509   2.849   4.818
   90SOPE  C31010323   0.710   2.774   4.784
   90SOPE  H10X10324   0.657   2.712   4.709
   90SOPE  H10Y10325   0.760   2.700   4.848
   90SOPE  C31110326   0.817   2.861   4.715
   90SOPE  H11X10327   0.889   2.793   4.662
   90SOPE  H11Y10328   0.873   2.918   4.792
   90SOPE  C31210329   0.766   2.958   4.609
   90SOPE  H12X10330   0.848   2.983   4.537
   90SOPE  H12Y10331   0.732   3.050   4.659
   90SOPE  C31310332   0.648   2.901   4.535
   90SOPE  H13X10333   0.567   2.890   4.612
   90SOPE  H13Y10334   0.676   2.801   4.495
   90SOPE  C31410335   0.586   2.989   4.429
   90SOPE  H14X10336   0.597   2.942   4.330
   90SOPE  H14Y10337   0.644   3.083   4.426
   90SOPE  C31510338   0.439   3.020   4.461
   90SOPE  H15X10339   0.436   3.079   4.555
   90SOPE  H15Y10340   0.386   2.925   4.480
   90SOPE  C31610341   0.365   3.097   4.352
   90SOPE  H16X10342   0.419   3.192   4.333
   90SOPE  H16Y10343   0.264   3.123   4.389
   90SOPE  C31710344   0.351   3.019   4.220
   90SOPE  H17X10345   0.449   2.977   4.190
   90SOPE  H17Y10346   0.324   3.089   4.139
   90SOPE  C31810347   0.246   2.908   4.226
   90SOPE  H18X10348   0.269   2.829   4.152
   90SOPE  H18Y10349   0.145   2.947   4.205
   90SOPE  H18Z10350   0.244   2.860   4.326
   91SOPE     N10351   4.238   4.509   6.323
   91SOPE   HN110352   4.155   4.505   6.385
   91SOPE   HN210353   4.210   4.477   6.226
   91SOPE   HN310354   4.317   4.447   6.355
   91SOPE   C1210355   4.292   4.649   6.307
   91SOPE  H12A10356   4.385   4.641   6.247
   91SOPE  H12B10357   4.317   4.689   6.407
   91SOPE   C1110358   4.192   4.741   6.234
   91SOPE  H11A10359   4.246   4.829   6.190
   91SOPE  H11B10360   4.119   4.781   6.308
   91SOPE     P10361   4.187   4.600   6.011
   91SOPE   O1310362   4.236   4.469   6.061
   91SOPE   O1410363   4.289   4.692   5.954
   91SOPE   O1210364   4.120   4.670   6.135
   91SOPE   O1110365   4.064   4.577   5.915
   91SOPE    C110366   3.933   4.550   5.969
   91SOPE    HA10367   3.914   4.599   6.067
   91SOPE    HB10368   3.922   4.440   5.985
   91SOPE    C210369   3.819   4.599   5.874
   91SOPE    HS10370   3.725   4.552   5.907
   91SOPE   O2110371   3.843   4.566   5.736
   91SOPE   C2110372   3.900   4.451   5.708
   91SOPE   O2210373   3.868   4.344   5.758
   91SOPE   C2210374   4.013   4.473   5.607
   91SOPE   H2R10375   4.107   4.477   5.667
   91SOPE   H2S10376   4.000   4.572   5.558
   91SOPE    C310377   3.796   4.754   5.887
   91SOPE    HX10378   3.746   4.771   5.984
   91SOPE    HY10379   3.723   4.785   5.809
   91SOPE   O3110380   3.917   4.835   5.884
   91SOPE   C3110381   3.976   4.842   5.764
   91SOPE   O3210382   3.934   4.795   5.660
   91SOPE   C3210383   4.103   4.927   5.770
   91SOPE   H2X10384   4.185   4.857   5.797
   91SOPE   H2Y10385   4.094   5.003   5.850
   91SOPE   C2310386   4.028   4.361   5.501
   91SOPE   H3R10387   4.042   4.265   5.554
   91SOPE   H3S10388   4.121   4.380   5.444
   91SOPE   C2410389   3.913   4.351   5.399
   91SOPE   H4R10390   3.927   4.258   5.339
   91SOPE   H4S10391   3.815   4.341   5.452
   91SOPE   C2510392   3.907   4.471   5.303
   91SOPE   H5R10393   3.884   4.562   5.362
   91SOPE   H5S10394   4.007   4.485   5.257
   91SOPE   C2610395   3.801   4.458   5.191
   91SOPE   H6R10396   3.702   4.452   5.241
   91SOPE   H6S10397   3.800   4.553   5.132
   91SOPE   C2710398   3.814   4.338   5.095
   91SOPE   H7R10399   3.815   4.244   5.154
   91SOPE   H7S10400   3.723   4.336   5.031
   91SOPE   C2810401   3.937   4.339   5.002
   91SOPE   H8R10402   4.029   4.339   5.063
   91SOPE   H8S10403   3.936   4.244   4.944
   91SOPE   C2910404   3.933   4.459   4.911
   91SOPE   H9110405   3.952   4.554   4.963
   91SOPE  C21010406   3.904   4.465   4.780
   91SOPE  H10110407   3.909   4.563   4.731
   91SOPE  C21110408   3.868   4.352   4.688
   91SOPE  H11R10409   3.758   4.352   4.670
   91SOPE  H11S10410   3.894   4.252   4.729
   91SOPE  C21210411   3.938   4.371   4.552
   91SOPE  H12R10412   3.928   4.475   4.515
   91SOPE  H12S10413   3.885   4.306   4.477
   91SOPE  C21310414   4.086   4.331   4.553
   91SOPE  H13R10415   4.119   4.309   4.657
   91SOPE  H13S10416   4.149   4.414   4.514
   91SOPE  C21410417   4.107   4.208   4.466
   91SOPE  H14R10418   4.077   4.233   4.361
   91SOPE  H14S10419   4.038   4.129   4.502
   91SOPE  C21510420   4.249   4.153   4.467
   91SOPE  H15R10421   4.281   4.138   4.573
   91SOPE  H15S10422   4.320   4.224   4.420
   91SOPE  C21610423   4.251   4.017   4.396
   91SOPE  H16R10424   4.186   3.953   4.459
   91SOPE  H16S10425   4.351   3.969   4.400
   91SOPE  C21710426   4.199   4.020   4.251
   91SOPE  H17R10427   4.093   4.053   4.249
   91SOPE  H17S10428   4.201   3.916   4.214
   91SOPE  C21810429   4.281   4.102   4.151
   91SOPE  H18R10430   4.379   4.051   4.135
   91SOPE  H18S10431   4.299   4.204   4.189
   91SOPE  H18T10432   4.229   4.108   4.053
   91SOPE   C3310433   4.133   4.994   5.633
   91SOPE   H3X10434   4.064   5.078   5.615
   91SOPE   H3Y10435   4.115   4.919   5.553
   91SOPE   C3410436   4.276   5.047   5.617
   91SOPE   H4X10437   4.344   4.984   5.679
   91SOPE   H4Y10438   4.280   5.151   5.658
   91SOPE   C3510439   4.326   5.044   5.472
   91SOPE   H5X10440   4.428   5.087   5.468
   91SOPE   H5Y10441   4.262   5.108   5.407
   91SOPE   C3610442   4.328   4.901   5.415
   91SOPE   H6X10443   4.231   4.878   5.366
   91SOPE   H6Y10444   4.339   4.830   5.500
   91SOPE   C3710445   4.444   4.875   5.319
   91SOPE   H7X10446   4.534   4.923   5.361
   91SOPE   H7Y10447   4.425   4.921   5.220
   91SOPE   C3810448   4.479   4.727   5.299
   91SOPE   H8X10449   4.449   4.667   5.387
   91SOPE   H8Y10450   4.590   4.720   5.289
   91SOPE   C3910451   4.423   4.667   5.169
   91SOPE   H9X10452   4.434   4.556   5.171
   91SOPE   H9Y10453   4.484   4.704   5.084
   91SOPE  C31010454   4.277   4.705   5.144
   91SOPE  H10X10455   4.269   4.814   5.123
   91SOPE  H10Y10456   4.218   4.685   5.236
   91SOPE  C31110457   4.213   4.628   5.028
   91SOPE  H11X10458   4.111   4.671   5.015
   91SOPE  H11Y10459   4.201   4.522   5.058
   91SOPE  C31210460   4.289   4.634   4.894
   91SOPE  H12X10461   4.223   4.582   4.820
   91SOPE  H12Y10462   4.383   4.575   4.901
   91SOPE  C31310463   4.322   4.775   4.843
   91SOPE  H13X10464   4.395   4.823   4.912
   91SOPE  H13Y10465   4.230   4.837   4.846
   91SOPE  C31410466   4.382   4.778   4.701
   91SOPE  H14X10467   4.486   4.738   4.704
   91SOPE  H14Y10468   4.387   4.884   4.667
   91SOPE  C31510469   4.303   4.695   4.597
   91SOPE  H15X10470   4.196   4.721   4.604
   91SOPE  H15Y10471   4.313   4.587   4.623
   91SOPE  C31610472   4.352   4.714   4.452
   91SOPE  H16X10473   4.462   4.702   4.448
   91SOPE  H16Y10474   4.327   4.817   4.418
   91SOPE  C31710475   4.287   4.612   4.357
   91SOPE  H17X10476   4.177   4.616   4.371
   91SOPE  H17Y10477   4.321   4.510   4.386
   91SOPE  C31810478   4.319   4.636   4.209
   91SOPE  H18X10479   4.262   4.565   4.145
   91SOPE  H18Y10480   4.427   4.621   4.189
   91SOPE  H18Z10481   4.292   4.739   4.180
   92SOPE     N10482   3.769   2.256   1.682
   92SOPE   HN110483   3.828   2.265   1.596
   92SOPE   HN210484   3.672   2.292   1.662
   92SOPE   HN310485   3.816   2.309   1.758
   92SOPE   C1210486   3.772   2.113   1.727
   92SOPE  H12A10487   3.704   2.054   1.662
   92SOPE  H12B10488   3.735   2.109   1.832
   92SOPE   C1110489   3.916   2.061   1.716
   92SOPE  H11A10490   3.945   2.058   1.608
   92SOPE  H11B10491   3.922   1.956   1.753
   92SOPE     P10492   4.043   2.132   1.937
   92SOPE   O1310493   4.171   2.201   1.958
   92SOPE   O1410494   4.033   1.989   1.970
   92SOPE   O1210495   4.009   2.148   1.782
   92SOPE   O1110496   3.923   2.211   2.005
   92SOPE    C110497   3.915   2.354   1.998
   92SOPE    HA10498   3.809   2.383   1.980
   92SOPE    HB10499   3.977   2.394   1.915
   92SOPE    C210500   3.961   2.431   2.127
   92SOPE    HS10501   3.989   2.533   2.091
   92SOPE   O2110502   4.072   2.364   2.191
   92SOPE   C2110503   4.145   2.447   2.264
   92SOPE   O2210504   4.118   2.565   2.280
   92SOPE   C2210505   4.271   2.380   2.320
   92SOPE   H2R10506   4.358   2.435   2.279
   92SOPE   H2S10507   4.275   2.275   2.284
   92SOPE    C310508   3.844   2.450   2.229
   92SOPE    HX10509   3.764   2.503   2.174
   92SOPE    HY10510   3.875   2.520   2.310
   92SOPE   O3110511   3.788   2.327   2.281
   92SOPE   C3110512   3.849   2.281   2.390
   92SOPE   O3210513   3.939   2.337   2.450
   92SOPE   C3210514   3.779   2.154   2.440
   92SOPE   H2X10515   3.679   2.147   2.392
   92SOPE   H2Y10516   3.764   2.167   2.549
   92SOPE   C2310517   4.278   2.384   2.475
   92SOPE   H3R10518   4.194   2.322   2.514
   92SOPE   H3S10519   4.263   2.488   2.511
   92SOPE   C2410520   4.412   2.331   2.527
   92SOPE   H4R10521   4.433   2.233   2.479
   92SOPE   H4S10522   4.492   2.402   2.495
   92SOPE   C2510523   4.417   2.313   2.680
   92SOPE   H5R10524   4.520   2.279   2.707
   92SOPE   H5S10525   4.399   2.411   2.731
   92SOPE   C2610526   4.316   2.209   2.730
   92SOPE   H6R10527   4.213   2.241   2.707
   92SOPE   H6S10528   4.336   2.114   2.674
   92SOPE   C2710529   4.325   2.176   2.880
   92SOPE   H7R10530   4.297   2.069   2.890
   92SOPE   H7S10531   4.431   2.186   2.913
   92SOPE   C2810532   4.230   2.259   2.969
   92SOPE   H8R10533   4.257   2.367   2.962
   92SOPE   H8S10534   4.126   2.248   2.931
   92SOPE   C2910535   4.242   2.208   3.110
   92SOPE   H9110536   4.321   2.131   3.121
   92SOPE  C21010537   4.174   2.244   3.221
   92SOPE  H10110538   4.201   2.194   3.315
   92SOPE  C21110539   4.065   2.347   3.237
   92SOPE  H11R10540   4.046   2.398   3.139
   92SOPE  H11S10541   4.099   2.426   3.308
   92SOPE  C21210542   3.931   2.289   3.288
   92SOPE  H12R10543   3.901   2.209   3.218
   92SOPE  H12S10544   3.853   2.367   3.284
   92SOPE  C21310545   3.934   2.230   3.431
   92SOPE  H13R10546   3.938   2.313   3.505
   92SOPE  H13S10547   4.026   2.171   3.444
   92SOPE  C21410548   3.815   2.137   3.464
   92SOPE  H14R10549   3.791   2.077   3.373
   92SOPE  H14S10550   3.727   2.200   3.488
   92SOPE  C21510551   3.841   2.036   3.579
   92SOPE  H15R10552   3.910   1.957   3.542
   92SOPE  H15S10553   3.745   1.987   3.606
   92SOPE  C21610554   3.904   2.097   3.705
   92SOPE  H16R10555   3.845   2.185   3.737
   92SOPE  H16S10556   4.005   2.131   3.678
   92SOPE  C21710557   3.921   1.997   3.821
   92SOPE  H17R10558   3.983   1.912   3.785
   92SOPE  H17S10559   3.821   1.957   3.848
   92SOPE  C21810560   3.987   2.060   3.945
   92SOPE  H18R10561   3.921   2.047   4.034
   92SOPE  H18S10562   4.004   2.168   3.930
   92SOPE  H18T10563   4.085   2.013   3.966
   92SOPE   C3310564   3.860   2.025   2.412
   92SOPE   H3X10565   3.870   2.011   2.302
   92SOPE   H3Y10566   3.802   1.939   2.451
   92SOPE   C3410567   4.000   2.021   2.475
   92SOPE   H4X10568   4.066   2.091   2.418
   92SOPE   H4Y10569   4.042   1.919   2.461
   92SOPE   C3510570   4.008   2.059   2.624
   92SOPE   H5X10571   3.980   2.165   2.638
   92SOPE   H5Y10572   4.115   2.048   2.656
   92SOPE   C3610573   3.924   1.971   2.716
   92SOPE   H6X10574   3.964   1.867   2.710
   92SOPE   H6Y10575   3.818   1.969   2.682
   92SOPE   C3710576   3.928   2.017   2.863
   92SOPE   H7X10577   3.869   2.110   2.876
   92SOPE   H7Y10578   4.033   2.040   2.890
   92SOPE   C3810579   3.874   1.907   2.955
   92SOPE   H8X10580   3.929   1.814   2.929
   92SOPE   H8Y10581   3.766   1.893   2.934
   92SOPE   C3910582   3.895   1.929   3.105
   92SOPE   H9X10583   3.825   1.863   3.162
   92SOPE   H9Y10584   3.869   2.033   3.130
   92SOPE  C31010585   4.038   1.894   3.145
   92SOPE  H10X10586   4.107   1.958   3.086
   92SOPE  H10Y10587   4.059   1.788   3.120
   92SOPE  C31110588   4.069   1.914   3.293
   92SOPE  H11X10589   4.015   1.839   3.355
   92SOPE  H11Y10590   4.034   2.014   3.322
   92SOPE  C31210591   4.220   1.905   3.320
   92SOPE  H12X10592   4.273   1.981   3.258
   92SOPE  H12Y10593   4.255   1.806   3.285
   92SOPE  C31310594   4.257   1.928   3.466
   92SOPE  H13X10595   4.265   1.829   3.516
   92SOPE  H13Y10596   4.178   1.986   3.518
   92SOPE  C31410597   4.392   1.998   3.486
   92SOPE  H14X10598   4.388   2.101   3.445
   92SOPE  H14Y10599   4.470   1.944   3.428
   92SOPE  C31510600   4.429   2.000   3.634
   92SOPE  H15X10601   4.534   1.965   3.645
   92SOPE  H15Y10602   4.364   1.929   3.691
   92SOPE  C31610603   4.417   2.139   3.696
   92SOPE  H16X10604   4.463   2.210   3.624
   92SOPE  H16Y10605   4.477   2.141   3.790
   92SOPE  C31710606   4.274   2.184   3.728
   92SOPE  H17X10607   4.273   2.239   3.825
   92SOPE  H17Y10608   4.212   2.093   3.744
   92SOPE  C31810609   4.210   2.273   3.622
   92SOPE  H18X10610   4.106   2.301   3.650
   92SOPE  H18Y10611   4.261   2.368   3.604
   92SOPE  H18Z10612   4.208   2.220   3.525
   93SOPE     N10613   3.976   4.019   1.625
   93SOPE   HN110614   3.986   4.093   1.699
   93SOPE   HN210615   4.070   3.981   1.611
   93SOPE   HN310616   3.935   4.061   1.540
   93SOPE   C1210617   3.892   3.911   1.688
   93SOPE  H12A10618   3.863   3.840   1.608
   93SOPE  H12B10619   3.802   3.960   1.729
   93SOPE   C1110620   3.971   3.840   1.799
   93SOPE  H11A10621   4.026   3.755   1.753
   93SOPE  H11B10622   3.901   3.795   1.873
   93SOPE     P10623   4.023   4.045   1.955
   93SOPE   O1310624   3.955   4.146   1.870
   93SOPE   O1410625   4.142   4.093   2.029
   93SOPE   O1210626   4.068   3.926   1.862
   93SOPE   O1110627   3.919   3.975   2.050
   93SOPE    C110628   3.779   4.003   2.036
   93SOPE    HA10629   3.734   3.935   1.960
   93SOPE    HB10630   3.759   4.108   2.004
   93SOPE    C210631   3.704   3.983   2.171
   93SOPE    HS10632   3.603   4.029   2.162
   93SOPE   O2110633   3.771   4.039   2.285
   93SOPE   C2110634   3.855   4.137   2.274
   93SOPE   O2210635   3.851   4.232   2.196
   93SOPE   C2210636   3.969   4.116   2.372
   93SOPE   H2R10637   4.059   4.091   2.312
   93SOPE   H2S10638   3.947   4.030   2.438
   93SOPE    C310639   3.685   3.830   2.195
   93SOPE    HX10640   3.616   3.793   2.116
   93SOPE    HY10641   3.631   3.815   2.292
   93SOPE   O3110642   3.810   3.755   2.186
   93SOPE   C3110643   3.884   3.768   2.299
   93SOPE   O3210644   3.837   3.808   2.403
   93SOPE   C3210645   4.027   3.713   2.282
   93SOPE   H2X10646   4.049   3.710   2.173
   93SOPE   H2Y10647   4.027   3.609   2.321
   93SOPE   C2310648   3.997   4.241   2.457
   93SOPE   H3R10649   3.977   4.335   2.402
   93SOPE   H3S10650   4.105   4.240   2.483
   93SOPE   C2410651   3.917   4.235   2.586
   93SOPE   H4R10652   3.811   4.210   2.561
   93SOPE   H4S10653   3.954   4.151   2.649
   93SOPE   C2510654   3.917   4.364   2.670
   93SOPE   H5R10655   4.015   4.375   2.720
   93SOPE   H5S10656   3.898   4.452   2.605
   93SOPE   C2610657   3.806   4.348   2.775
   93SOPE   H6R10658   3.709   4.351   2.721
   93SOPE   H6S10659   3.824   4.245   2.810
   93SOPE   C2710660   3.802   4.447   2.893
   93SOPE   H7R10661   3.902   4.493   2.903
   93SOPE   H7S10662   3.732   4.530   2.866
   93SOPE   C2810663   3.758   4.390   3.032
   93SOPE   H8R10664   3.827   4.431   3.108
   93SOPE   H8S10665   3.662   4.439   3.056
   93SOPE   C2910666   3.745   4.239   3.051
   93SOPE   H9110667   3.731   4.183   2.958
   93SOPE  C21010668   3.732   4.164   3.161
   93SOPE  H10110669   3.717   4.056   3.146
   93SOPE  C21110670   3.726   4.198   3.307
   93SOPE  H11R10671   3.723   4.308   3.319
   93SOPE  H11S10672   3.818   4.163   3.358
   93SOPE  C21210673   3.601   4.133   3.372
   93SOPE  H12R10674   3.525   4.105   3.296
   93SOPE  H12S10675   3.550   4.204   3.439
   93SOPE  C21310676   3.627   4.010   3.459
   93SOPE  H13R10677   3.674   3.933   3.395
   93SOPE  H13S10678   3.529   3.969   3.494
   93SOPE  C21410679   3.716   4.029   3.583
   93SOPE  H14R10680   3.671   4.099   3.656
   93SOPE  H14S10681   3.815   4.070   3.552
   93SOPE  C21510682   3.738   3.892   3.646
   93SOPE  H15R10683   3.762   3.825   3.560
   93SOPE  H15S10684   3.644   3.855   3.693
   93SOPE  C21610685   3.856   3.876   3.743
   93SOPE  H16R10686   3.951   3.906   3.693
   93SOPE  H16S10687   3.863   3.767   3.765
   93SOPE  C21710688   3.842   3.950   3.875
   93SOPE  H17R10689   3.749   3.918   3.926
   93SOPE  H17S10690   3.834   4.060   3.855
   93SOPE  C21810691   3.962   3.924   3.966
   93SOPE  H18R10692   4.009   4.019   4.000
   93SOPE  H18S10693   4.039   3.864   3.913
   93SOPE  H18T10694   3.930   3.866   4.056
   93SOPE   C3310695   4.139   3.795   2.354
   93SOPE   H3X10696   4.144   3.897   2.312
   93SOPE   H3Y10697   4.237   3.746   2.333
   93SOPE   C3410698   4.126   3.801   2.508
   93SOPE   H4X10699   4.142   3.701   2.552
   93SOPE   H4Y10700   4.024   3.836   2.533
   93SOPE   C3510701   4.213   3.905   2.578
   93SOPE   H5X10702   4.183   4.005   2.540
   93SOPE   H5Y10703   4.319   3.888   2.552
   93SOPE   C3610704   4.200   3.904   2.732
   93SOPE   H6X10705   4.261   3.820   2.772
   93SOPE   H6Y10706   4.094   3.887   2.761
   93SOPE   C3710707   4.246   4.037   2.792
   93SOPE   H7X10708   4.170   4.115   2.771
   93SOPE   H7Y10709   4.340   4.066   2.741
   93SOPE   C3810710   4.278   4.035   2.942
   93SOPE   H8X10711   4.335   4.128   2.965
   93SOPE   H8Y10712   4.346   3.950   2.960
   93SOPE   C3910713   4.159   4.026   3.037
   93SOPE   H9X10714   4.198   4.026   3.142
   93SOPE   H9Y10715   4.108   3.928   3.021
   93SOPE  C31010716   4.056   4.139   3.025
   93SOPE  H10X10717   3.984   4.128   3.109
   93SOPE  H10Y10718   4.000   4.125   2.930
   93SOPE  C31110719   4.111   4.283   3.029
   93SOPE  H11X10720   4.034   4.352   2.990
   93SOPE  H11Y10721   4.196   4.290   2.958
   93SOPE  C31210722   4.154   4.333   3.168
   93SOPE  H12X10723   4.238   4.403   3.152
   93SOPE  H12Y10724   4.190   4.250   3.232
   93SOPE  C31310725   4.051   4.423   3.237
   93SOPE  H13X10726   3.967   4.361   3.275
   93SOPE  H13Y10727   4.011   4.494   3.162
   93SOPE  C31410728   4.112   4.508   3.350
   93SOPE  H14X10729   4.111   4.615   3.320
   93SOPE  H14Y10730   4.218   4.479   3.367
   93SOPE  C31510731   4.038   4.493   3.482
   93SOPE  H15X10732   3.935   4.532   3.468
   93SOPE  H15Y10733   4.088   4.557   3.558
   93SOPE  C31610734   4.034   4.348   3.531
   93SOPE  H16X10735   4.110   4.287   3.478
   93SOPE  H16Y10736   3.935   4.302   3.508
   93SOPE  C31710737   4.060   4.340   3.681
   93SOPE  H17X10738   3.983   4.401   3.732
   93SOPE  H17Y10739   4.157   4.388   3.703
   93SOPE  C31810740   4.060   4.197   3.735
   93SOPE  H18X10741   4.143   4.139   3.689
   93SOPE  H18Y10742   3.964   4.148   3.710
   93SOPE  H18Z10743   4.073   4.197   3.845
   94SOPE     N10744   1.349   4.759   2.020
   94SOPE   HN110745   1.407   4.840   2.054
   94SOPE   HN210746   1.300   4.796   1.934
   94SOPE   HN310747   1.279   4.734   2.092
   94SOPE   C1210748   1.446   4.651   1.977
   94SOPE  H12A10749   1.389   4.574   1.922
   94SOPE  H12B10750   1.492   4.607   2.069
   94SOPE   C1110751   1.559   4.707   1.887
   94SOPE  H11A10752   1.621   4.624   1.848
   94SOPE  H11B10753   1.630   4.770   1.944
   94SOPE     P10754   1.468   4.928   1.788
   94SOPE   O1310755   1.321   4.937   1.789
   94SOPE   O1410756   1.541   5.009   1.689
   94SOPE   O1210757   1.504   4.775   1.775
   94SOPE   O1110758   1.508   4.965   1.938
   94SOPE    C110759   1.447   5.073   2.012
   94SOPE    HA10760   1.345   5.096   1.976
   94SOPE    HB10761   1.508   5.165   2.000
   94SOPE    C210762   1.433   5.045   2.167
   94SOPE    HS10763   1.479   5.131   2.223
   94SOPE   O2110764   1.497   4.920   2.203
   94SOPE   C2110765   1.629   4.934   2.211
   94SOPE   O2210766   1.691   5.037   2.199
   94SOPE   C2210767   1.692   4.798   2.236
   94SOPE   H2R10768   1.757   4.777   2.148
   94SOPE   H2S10769   1.613   4.720   2.244
   94SOPE    C310770   1.284   5.040   2.214
   94SOPE    HX10771   1.225   4.996   2.131
   94SOPE    HY10772   1.244   5.144   2.224
   94SOPE   O3110773   1.262   4.959   2.332
   94SOPE   C3110774   1.266   5.026   2.448
   94SOPE   O3210775   1.292   5.145   2.457
   94SOPE   C3210776   1.226   4.937   2.566
   94SOPE   H2X10777   1.318   4.920   2.625
   94SOPE   H2Y10778   1.188   4.839   2.530
   94SOPE   C2310779   1.779   4.800   2.363
   94SOPE   H3R10780   1.847   4.888   2.362
   94SOPE   H3S10781   1.842   4.709   2.364
   94SOPE   C2410782   1.696   4.804   2.492
   94SOPE   H4R10783   1.625   4.890   2.492
   94SOPE   H4S10784   1.636   4.710   2.498
   94SOPE   C2510785   1.787   4.814   2.615
   94SOPE   H5R10786   1.875   4.749   2.598
   94SOPE   H5S10787   1.824   4.918   2.627
   94SOPE   C2610788   1.718   4.766   2.743
   94SOPE   H6R10789   1.662   4.672   2.722
   94SOPE   H6S10790   1.796   4.738   2.817
   94SOPE   C2710791   1.623   4.869   2.806
   94SOPE   H7R10792   1.548   4.902   2.732
   94SOPE   H7S10793   1.570   4.817   2.889
   94SOPE   C2810794   1.690   4.993   2.868
   94SOPE   H8R10795   1.729   5.059   2.787
   94SOPE   H8S10796   1.610   5.050   2.920
   94SOPE   C2910797   1.803   4.959   2.961
   94SOPE   H9110798   1.897   4.933   2.911
   94SOPE  C21010799   1.802   4.957   3.096
   94SOPE  H10110800   1.894   4.923   3.144
   94SOPE  C21110801   1.690   4.989   3.191
   94SOPE  H11R10802   1.645   5.087   3.166
   94SOPE  H11S10803   1.729   5.000   3.294
   94SOPE  C21210804   1.576   4.886   3.193
   94SOPE  H12R10805   1.534   4.873   3.091
   94SOPE  H12S10806   1.495   4.927   3.257
   94SOPE  C21310807   1.618   4.749   3.249
   94SOPE  H13R10808   1.703   4.708   3.192
   94SOPE  H13S10809   1.532   4.679   3.236
   94SOPE  C21410810   1.652   4.754   3.399
   94SOPE  H14R10811   1.572   4.813   3.450
   94SOPE  H14S10812   1.748   4.807   3.415
   94SOPE  C21510813   1.659   4.614   3.461
   94SOPE  H15R10814   1.742   4.558   3.414
   94SOPE  H15S10815   1.564   4.561   3.437
   94SOPE  C21610816   1.675   4.615   3.613
   94SOPE  H16R10817   1.770   4.668   3.640
   94SOPE  H16S10818   1.684   4.510   3.649
   94SOPE  C21710819   1.559   4.682   3.687
   94SOPE  H17R10820   1.462   4.648   3.643
   94SOPE  H17S10821   1.563   4.792   3.670
   94SOPE  C21810822   1.560   4.653   3.837
   94SOPE  H18R10823   1.488   4.719   3.890
   94SOPE  H18S10824   1.661   4.672   3.879
   94SOPE  H18T10825   1.533   4.547   3.857
   94SOPE   C3310826   1.120   5.005   2.657
   94SOPE   H3X10827   1.025   5.016   2.600
   94SOPE   H3Y10828   1.155   5.108   2.684
   94SOPE   C3410829   1.089   4.932   2.790
   94SOPE   H4X10830   1.182   4.923   2.850
   94SOPE   H4Y10831   1.054   4.829   2.767
   94SOPE   C3510832   0.982   5.006   2.874
   94SOPE   H5X10833   0.893   5.018   2.809
   94SOPE   H5Y10834   1.020   5.108   2.897
   94SOPE   C3610835   0.936   4.937   3.005
   94SOPE   H6X10836   0.979   4.834   3.011
   94SOPE   H6Y10837   0.825   4.925   2.999
   94SOPE   C3710838   0.966   5.014   3.136
   94SOPE   H7X10839   0.961   5.123   3.113
   94SOPE   H7Y10840   1.070   4.992   3.166
   94SOPE   C3810841   0.871   4.985   3.257
   94SOPE   H8X10842   0.765   5.003   3.228
   94SOPE   H8Y10843   0.897   5.056   3.338
   94SOPE   C3910844   0.887   4.842   3.310
   94SOPE   H9X10845   0.996   4.834   3.327
   94SOPE   H9Y10846   0.856   4.771   3.231
   94SOPE  C31010847   0.826   4.795   3.445
   94SOPE  H10X10848   0.715   4.805   3.442
   94SOPE  H10Y10849   0.864   4.859   3.527
   94SOPE  C31110850   0.865   4.647   3.473
   94SOPE  H11X10851   0.974   4.635   3.454
   94SOPE  H11Y10852   0.814   4.582   3.400
   94SOPE  C31210853   0.841   4.593   3.615
   94SOPE  H12X10854   0.740   4.622   3.652
   94SOPE  H12Y10855   0.915   4.643   3.681
   94SOPE  C31310856   0.856   4.438   3.636
   94SOPE  H13X10857   0.761   4.385   3.629
   94SOPE  H13Y10858   0.887   4.430   3.740
   94SOPE  C31410859   0.954   4.362   3.542
   94SOPE  H14X10860   1.051   4.410   3.546
   94SOPE  H14Y10861   0.914   4.383   3.440
   94SOPE  C31510862   0.966   4.206   3.549
   94SOPE  H15X10863   0.976   4.179   3.442
   94SOPE  H15Y10864   0.868   4.168   3.584
   94SOPE  C31610865   1.081   4.116   3.612
   94SOPE  H16X10866   1.050   4.015   3.580
   94SOPE  H16Y10867   1.083   4.111   3.721
   94SOPE  C31710868   1.223   4.120   3.551
   94SOPE  H17X10869   1.203   4.221   3.522
   94SOPE  H17Y10870   1.230   4.060   3.458
   94SOPE  C31810871   1.360   4.119   3.624
   94SOPE  H18X10872   1.389   4.026   3.673
   94SOPE  H18Y10873   1.373   4.197   3.701
   94SOPE  H18Z10874   1.439   4.140   3.548
   95SAPI   C1210875   0.687   0.908   6.434
   95SAPI    H210876   0.717   0.986   6.360
   95SAPI    O210877   0.806   0.852   6.488
   95SAPI   HO210878   0.820   0.777   6.428
   95SAPI   C1310879   0.592   0.972   6.534
   95SAPI    H310880   0.502   1.004   6.476
   95SAPI    O310881   0.645   1.090   6.594
   95SAPI   HO310882   0.618   1.169   6.546
   95SAPI   C1410883   0.546   0.870   6.636
   95SAPI    H410884   0.635   0.834   6.694
   95SAPI    O410885   0.458   0.938   6.727
   95SAPI   HO410886   0.474   1.032   6.709
   95SAPI   C1510887   0.476   0.753   6.568
   95SAPI    H510888   0.384   0.790   6.516
   95SAPI    O510889   0.435   0.657   6.667
   95SAPI   HO510890   0.370   0.697   6.728
   95SAPI   C1610891   0.568   0.689   6.464
   95SAPI    H610892   0.656   0.642   6.513
   95SAPI    O610893   0.500   0.590   6.386
   95SAPI   HO610894   0.503   0.629   6.297
   95SAPI   C1110895   0.610   0.797   6.367
   95SAPI    H110896   0.514   0.842   6.329
   95SAPI     P10897   0.663   0.808   6.116
   95SAPI   O1310898   0.723   0.943   6.116
   95SAPI   O1410899   0.520   0.785   6.091
   95SAPI   O1210900   0.691   0.737   6.264
   95SAPI   O1110901   0.749   0.712   6.028
   95SAPI    C110902   0.889   0.701   6.043
   95SAPI    HA10903   0.935   0.798   6.074
   95SAPI    HB10904   0.911   0.626   6.122
   95SAPI    C210905   0.944   0.651   5.908
   95SAPI    HS10906   1.038   0.595   5.926
   95SAPI   O2110907   0.969   0.756   5.814
   95SAPI   C2110908   1.059   0.845   5.849
   95SAPI   O2210909   1.127   0.843   5.951
   95SAPI   C2210910   1.064   0.954   5.742
   95SAPI   H2R10911   0.964   1.002   5.736
   95SAPI   H2S10912   1.138   1.030   5.775
   95SAPI    C310913   0.842   0.555   5.841
   95SAPI    HX10914   0.747   0.611   5.825
   95SAPI    HY10915   0.820   0.470   5.908
   95SAPI   O3110916   0.900   0.508   5.719
   95SAPI   C3110917   0.848   0.558   5.608
   95SAPI   O3210918   0.736   0.603   5.596
   95SAPI   C3210919   0.953   0.553   5.499
   95SAPI   H2X10920   0.969   0.448   5.471
   95SAPI   H2Y10921   1.048   0.593   5.539
   95SAPI   C2310922   1.105   0.899   5.603
   95SAPI   H3R10923   1.046   0.808   5.579
   95SAPI   H3S10924   1.213   0.872   5.604
   95SAPI   C2410925   1.075   1.003   5.494
   95SAPI   H4R10926   1.124   1.096   5.528
   95SAPI   H4S10927   0.965   1.023   5.493
   95SAPI   C2510928   1.128   0.972   5.357
   95SAPI   H5R10929   1.232   0.937   5.353
   95SAPI   C2610930   1.062   0.989   5.241
   95SAPI   H6R10931   1.116   0.970   5.147
   95SAPI   C2710932   0.922   1.042   5.222
   95SAPI   H7R10933   0.917   1.101   5.128
   95SAPI   H7S10934   0.895   1.113   5.303
   95SAPI   C2810935   0.821   0.930   5.220
   95SAPI   H8R10936   0.783   0.900   5.319
   95SAPI   C2910937   0.772   0.866   5.112
   95SAPI   H9R10938   0.701   0.784   5.127
   95SAPI  C21010939   0.809   0.892   4.969
   95SAPI  H10R10940   0.835   0.795   4.921
   95SAPI  H10S10941   0.899   0.956   4.960
   95SAPI  C21110942   0.692   0.959   4.902
   95SAPI  H11R10943   0.672   1.063   4.934
   95SAPI  C21210944   0.610   0.903   4.812
   95SAPI  H12R10945   0.526   0.962   4.774
   95SAPI  C21310946   0.621   0.761   4.761
   95SAPI  H13R10947   0.587   0.689   4.839
   95SAPI  H13S10948   0.727   0.734   4.741
   95SAPI  C21410949   0.536   0.744   4.639
   95SAPI  H14R10950   0.429   0.732   4.659
   95SAPI  C21510951   0.580   0.746   4.511
   95SAPI  H15R10952   0.509   0.731   4.429
   95SAPI  C21610953   0.724   0.765   4.472
   95SAPI  H16R10954   0.785   0.686   4.522
   95SAPI  H16S10955   0.762   0.863   4.509
   95SAPI  C21710956   0.748   0.753   4.321
   95SAPI  H17R10957   0.710   0.655   4.285
   95SAPI  H17S10958   0.858   0.753   4.305
   95SAPI  C21810959   0.689   0.865   4.234
   95SAPI  H18R10960   0.578   0.861   4.242
   95SAPI  H18S10961   0.713   0.846   4.127
   95SAPI  C21910962   0.739   1.006   4.267
   95SAPI  H19R10963   0.697   1.036   4.366
   95SAPI  H19S10964   0.696   1.073   4.190
   95SAPI  C22010965   0.891   1.027   4.270
   95SAPI  H20R10966   0.938   0.962   4.347
   95SAPI  H20S10967   0.915   1.133   4.295
   95SAPI  H20T10968   0.936   1.003   4.172
   95SAPI   C3310969   0.911   0.635   5.376
   95SAPI   H3X10970   0.912   0.743   5.403
   95SAPI   H3Y10971   0.806   0.609   5.346
   95SAPI   C3410972   1.000   0.612   5.254
   95SAPI   H4X10973   0.979   0.694   5.182
   95SAPI   H4Y10974   0.971   0.518   5.203
   95SAPI   C3510975   1.150   0.606   5.283
   95SAPI   H5X10976   1.173   0.522   5.353
   95SAPI   H5Y10977   1.181   0.700   5.332
   95SAPI   C3610978   1.231   0.586   5.155
   95SAPI   H6X10979   1.211   0.486   5.112
   95SAPI   H6Y10980   1.338   0.584   5.185
   95SAPI   C3710981   1.203   0.693   5.049
   95SAPI   H7X10982   1.300   0.727   5.006
   95SAPI   H7Y10983   1.156   0.782   5.095
   95SAPI   C3810984   1.116   0.640   4.935
   95SAPI   H8X10985   1.016   0.610   4.974
   95SAPI   H8Y10986   1.166   0.548   4.899
   95SAPI   C3910987   1.098   0.735   4.815
   95SAPI   H9X10988   1.196   0.780   4.788
   95SAPI   H9Y10989   1.030   0.820   4.837
   95SAPI  C31010990   1.044   0.652   4.697
   95SAPI  H10X10991   0.934   0.640   4.707
   95SAPI  H10Y10992   1.089   0.551   4.708
   95SAPI  C31110993   1.080   0.698   4.556
   95SAPI  H11X10994   1.188   0.727   4.551
   95SAPI  H11Y10995   1.020   0.788   4.528
   95SAPI  C31210996   1.053   0.583   4.457
   95SAPI  H12X10997   0.945   0.558   4.466
   95SAPI  H12Y10998   1.108   0.491   4.487
   95SAPI  C31310999   1.085   0.612   4.311
   95SAPI  H13X11000   1.193   0.596   4.290
   95SAPI  H13Y11001   1.064   0.720   4.292
   95SAPI  C31411002   0.999   0.524   4.219
   95SAPI  H14X11003   0.892   0.530   4.252
   95SAPI  H14Y11004   1.030   0.418   4.231
   95SAPI  C31511005   1.003   0.561   4.070
   95SAPI  H15X11006   0.931   0.493   4.020
   95SAPI  H15Y11007   1.105   0.542   4.031
   95SAPI  C31611008   0.961   0.705   4.037
   95SAPI  H16X11009   1.022   0.777   4.097
   95SAPI  H16Y11010   0.855   0.717   4.066
   95SAPI  C31711011   0.976   0.745   3.890
   95SAPI  H17X11012   0.893   0.700   3.830
   95SAPI  H17Y11013   1.072   0.703   3.851
   95SAPI  C31811014   0.978   0.897   3.871
   95SAPI  H18X11015   0.989   0.924   3.763
   95SAPI  H18Y11016   1.063   0.941   3.927
   95SAPI  H18Z11017   0.884   0.942   3.909
   96SAPI   C1211018   2.167   4.813   1.522
   96SAPI    H211019   2.168   4.923   1.540
   96SAPI    O211020   2.037   4.767   1.550
   96SAPI   HO211021   2.024   4.778   1.645
   96SAPI   C1311022   2.192   4.787   1.376
   96SAPI    H311023   2.295   4.820   1.350
   96SAPI    O311024   2.102   4.864   1.296
   96SAPI   HO311025   2.013   4.838   1.322
   96SAPI   C1411026   2.187   4.636   1.351
   96SAPI    H411027   2.093   4.595   1.396
   96SAPI    O411028   2.173   4.600   1.215
   96SAPI   HO411029   2.079   4.612   1.197
   96SAPI   C1511030   2.301   4.571   1.429
   96SAPI    H511031   2.396   4.623   1.401
   96SAPI    O511032   2.325   4.432   1.403
   96SAPI   HO511033   2.319   4.387   1.489
   96SAPI   C1611034   2.275   4.596   1.577
   96SAPI    H611035   2.174   4.553   1.602
   96SAPI    O611036   2.369   4.528   1.659
   96SAPI   HO611037   2.337   4.553   1.748
   96SAPI   C1111038   2.272   4.745   1.608
   96SAPI    H111039   2.374   4.787   1.586
   96SAPI     P11040   2.247   4.901   1.828
   96SAPI   O1311041   2.138   4.988   1.781
   96SAPI   O1411042   2.382   4.960   1.816
   96SAPI   O1211043   2.243   4.758   1.747
   96SAPI   O1111044   2.222   4.849   1.975
   96SAPI    C111045   2.133   4.912   2.067
   96SAPI    HA11046   2.053   4.970   2.016
   96SAPI    HB11047   2.082   4.834   2.127
   96SAPI    C211048   2.212   5.004   2.163
   96SAPI    HS11049   2.272   5.076   2.102
   96SAPI   O2111050   2.295   4.923   2.249
   96SAPI   C2111051   2.419   4.902   2.210
   96SAPI   O2211052   2.476   4.951   2.114
   96SAPI   C2211053   2.482   4.802   2.308
   96SAPI   H2R11054   2.420   4.797   2.400
   96SAPI   H2S11055   2.478   4.704   2.258
   96SAPI    C311056   2.117   5.089   2.251
   96SAPI    HX11057   2.053   5.021   2.313
   96SAPI    HY11058   2.048   5.146   2.185
   96SAPI   O3111059   2.196   5.183   2.328
   96SAPI   C3111060   2.220   5.148   2.452
   96SAPI   O3211061   2.163   5.061   2.515
   96SAPI   C3211062   2.334   5.232   2.504
   96SAPI   H2X11063   2.299   5.337   2.515
   96SAPI   H2Y11064   2.417   5.231   2.431
   96SAPI   C2311065   2.629   4.835   2.347
   96SAPI   H3R11066   2.692   4.839   2.256
   96SAPI   H3S11067   2.667   4.749   2.407
   96SAPI   C2411068   2.642   4.968   2.425
   96SAPI   H4R11069   2.541   4.998   2.461
   96SAPI   H4S11070   2.672   5.047   2.352
   96SAPI   C2511071   2.736   4.971   2.544
   96SAPI   H5R11072   2.807   5.055   2.544
   96SAPI   C2611073   2.732   4.888   2.650
   96SAPI   H6R11074   2.806   4.902   2.731
   96SAPI   C2711075   2.634   4.776   2.674
   96SAPI   H7R11076   2.678   4.682   2.633
   96SAPI   H7S11077   2.542   4.794   2.614
   96SAPI   C2811078   2.599   4.751   2.819
   96SAPI   H8R11079   2.684   4.722   2.883
   96SAPI   C2911080   2.477   4.759   2.877
   96SAPI   H9R11081   2.469   4.735   2.984
   96SAPI  C21011082   2.346   4.796   2.809
   96SAPI  H10R11083   2.354   4.778   2.700
   96SAPI  H10S11084   2.332   4.906   2.817
   96SAPI  C21111085   2.215   4.735   2.855
   96SAPI  H11R11086   2.157   4.690   2.773
   96SAPI  C21211087   2.163   4.729   2.979
   96SAPI  H12R11088   2.064   4.681   2.991
   96SAPI  C21311089   2.220   4.783   3.108
   96SAPI  H13R11090   2.322   4.743   3.124
   96SAPI  H13S11091   2.163   4.739   3.193
   96SAPI  C21411092   2.225   4.934   3.120
   96SAPI  H14R11093   2.289   4.984   3.045
   96SAPI  C21511094   2.160   5.009   3.211
   96SAPI  H15R11095   2.176   5.118   3.211
   96SAPI  C21611096   2.067   4.957   3.318
   96SAPI  H16R11097   2.016   4.865   3.283
   96SAPI  H16S11098   1.987   5.031   3.340
   96SAPI  C21711099   2.132   4.914   3.451
   96SAPI  H17R11100   2.167   5.003   3.508
   96SAPI  H17S11101   2.219   4.850   3.426
   96SAPI  C21811102   2.033   4.831   3.535
   96SAPI  H18R11103   2.002   4.743   3.474
   96SAPI  H18S11104   1.941   4.891   3.554
   96SAPI  C21911105   2.088   4.779   3.668
   96SAPI  H19R11106   2.184   4.725   3.650
   96SAPI  H19S11107   2.016   4.705   3.709
   96SAPI  C22011108   2.110   4.888   3.773
   96SAPI  H20R11109   2.015   4.942   3.793
   96SAPI  H20S11110   2.186   4.962   3.738
   96SAPI  H20T11111   2.145   4.844   3.869
   96SAPI   C3311112   2.380   5.176   2.639
   96SAPI   H3X11113   2.413   5.070   2.630
   96SAPI   H3Y11114   2.295   5.179   2.711
   96SAPI   C3411115   2.494   5.258   2.698
   96SAPI   H4X11116   2.467   5.367   2.689
   96SAPI   H4Y11117   2.588   5.242   2.641
   96SAPI   C3511118   2.511   5.226   2.846
   96SAPI   H5X11119   2.413   5.235   2.897
   96SAPI   H5Y11120   2.578   5.300   2.892
   96SAPI   C3611121   2.575   5.091   2.879
   96SAPI   H6X11122   2.670   5.079   2.822
   96SAPI   H6Y11123   2.505   5.011   2.852
   96SAPI   C3711124   2.603   5.093   3.028
   96SAPI   H7X11125   2.509   5.129   3.076
   96SAPI   H7Y11126   2.683   5.170   3.044
   96SAPI   C3811127   2.648   4.968   3.102
   96SAPI   H8X11128   2.731   4.918   3.048
   96SAPI   H8Y11129   2.564   4.895   3.111
   96SAPI   C3911130   2.694   5.014   3.241
   96SAPI   H9X11131   2.773   5.091   3.228
   96SAPI   H9Y11132   2.738   4.933   3.300
   96SAPI  C31011133   2.583   5.077   3.325
   96SAPI  H10X11134   2.529   5.157   3.272
   96SAPI  H10Y11135   2.633   5.125   3.411
   96SAPI  C31111136   2.480   4.978   3.379
   96SAPI  H11X11137   2.432   4.921   3.296
   96SAPI  H11Y11138   2.400   5.036   3.431
   96SAPI  C31211139   2.545   4.880   3.477
   96SAPI  H12X11140   2.618   4.938   3.537
   96SAPI  H12Y11141   2.601   4.803   3.419
   96SAPI  C31311142   2.446   4.811   3.571
   96SAPI  H13X11143   2.372   4.755   3.510
   96SAPI  H13Y11144   2.392   4.886   3.633
   96SAPI  C31411145   2.515   4.708   3.660
   96SAPI  H14X11146   2.569   4.637   3.593
   96SAPI  H14Y11147   2.437   4.651   3.716
   96SAPI  C31511148   2.617   4.767   3.757
   96SAPI  H15X11149   2.687   4.835   3.702
   96SAPI  H15Y11150   2.680   4.685   3.797
   96SAPI  C31611151   2.556   4.849   3.871
   96SAPI  H16X11152   2.484   4.924   3.832
   96SAPI  H16Y11153   2.641   4.903   3.918
   96SAPI  C31711154   2.488   4.768   3.981
   96SAPI  H17X11155   2.394   4.726   3.941
   96SAPI  H17Y11156   2.460   4.838   4.064
   96SAPI  C31811157   2.576   4.657   4.037
   96SAPI  H18X11158   2.678   4.695   4.058
   96SAPI  H18Y11159   2.585   4.573   3.966
   96SAPI  H18Z11160   2.533   4.618   4.131
   97SOD    SOD11161   0.137   1.690   0.618
   98SOD    SOD11162   2.032   1.749   7.400
   99SOD    SOD11163   4.160   3.796   1.147
  100SOD    SOD11164   4.914   0.853   0.781
  101SOD    SOD11165   1.647   4.194   0.713
  102SOD    SOD11166   0.506   3.287   1.430
  103SOD    SOD11167   4.622   2.925   7.510
  104SOD    SOD11168   3.132   1.073   6.899
  105SOD    SOD11169   1.413   0.450   7.190
  106SOD    SOD11170   2.986   2.554   0.362
  107SOD    SOD11171   4.797   4.306   1.232
  108SOD    SOD11172   1.711   3.846   7.138
  109SOD    SOD11173   0.640   0.408   1.075
  110SOD    SOD11174   4.983   0.084   0.570
  111SOD    SOD11175   1.475   3.108   6.003
  112SOD    SOD11176   3.460   2.915   7.470
  113SOD    SOD11177   4.840   4.387   6.399
  114CLA    CLA11178   3.081   1.579   0.067
  115CLA    CLA11179   5.155   4.322   0.102
  116CLA    CLA11180   0.602   3.656   7.452
  117CLA    CLA11181   4.407   3.313   7.158
  118CLA    CLA11182   3.622   3.024   7.268
  119CLA    CLA11183   5.139   4.828   0.039
  120CLA    CLA11184   4.200   1.469   0.479
  121TIP3   OH211185   3.523   3.533   6.029
  121TIP3    H111186   3.455   3.527   6.097
  121TIP3    H211187   3.539   3.628   6.020
  122TIP3   OH211188   3.247   3.156   6.009
  122TIP3    H111189   3.258   3.079   6.066
  122TIP3    H211190   3.226   3.121   5.922
  123TIP3   OH211191   3.987   2.585   6.097
  123TIP3    H111192   3.900   2.589   6.143
  123TIP3    H211193   3.986   2.675   6.059
  124TIP3   OH211194   3.455   2.680   6.143
  124TIP3    H111195   3.368   2.726   6.152
  124TIP3    H211196   3.464   2.680   6.046
  125TIP3   OH211197   3.660   2.341   6.002
  125TIP3    H111198   3.606   2.259   6.007
  125TIP3    H211199   3.653   2.355   5.904
  126TIP3   OH211200   3.787   2.867   6.084
  126TIP3    H111201   3.739   2.946   6.056
  126TIP3    H211202   3.741   2.841   6.166
  127TIP3   OH211203   3.729   2.572   6.196
  127TIP3    H111204   3.646   2.625   6.199
  127TIP3    H211205   3.695   2.495   6.147
  128TIP3   OH211206   1.876   3.285   5.874
  128TIP3    H111207   1.910   3.242   5.955
  128TIP3    H211208   1.926   3.369   5.871
  129TIP3   OH211209   2.057   1.129   6.099
  129TIP3    H111210   2.111   1.208   6.083
  129TIP3    H211211   1.995   1.129   6.024
  130TIP3   OH211212   2.138   1.456   6.057
  130TIP3    H111213   2.234   1.447   6.050
  130TIP3    H211214   2.130   1.553   6.069
  131TIP3   OH211215   1.201   2.483   6.052
  131TIP3    H111216   1.293   2.482   6.082
  131TIP3    H211217   1.167   2.399   6.086
  132TIP3   OH211218   0.900   2.615   5.998
  132TIP3    H111219   0.811   2.573   6.000
  132TIP3    H211220   0.946   2.547   5.946
  133TIP3   OH211221   1.081   2.679   6.194
  133TIP3    H111222   1.140   2.608   6.162
  133TIP3    H211223   1.009   2.662   6.130
  134TIP3   OH211224   2.439   0.938   6.082
  134TIP3    H111225   2.368   0.999   6.104
  134TIP3    H211226   2.517   0.990   6.107
  135TIP3   OH211227   1.212   1.258   6.263
  135TIP3    H111228   1.243   1.327   6.204
  135TIP3    H211229   1.129   1.230   6.221
  136TIP3   OH211230   0.024   3.837   6.215
  136TIP3    H111231   0.099   3.864   6.161
  136TIP3    H211232  -0.026   3.780   6.155
  137TIP3   OH211233   0.072   4.161   5.959
  137TIP3    H111234   0.007   4.232   5.952
  137TIP3    H211235   0.109   4.184   6.044
  138TIP3   OH211236   3.608   5.081   6.064
  138TIP3    H111237   3.686   5.120   6.021
  138TIP3    H211238   3.612   5.118   6.155
  139TIP3   OH211239   0.802   0.212   6.016
  139TIP3    H111240   0.874   0.200   5.952
  139TIP3    H211241   0.813   0.303   6.047
  140TIP3   OH211242   0.317   5.128   6.064
  140TIP3    H111243   0.401   5.084   6.084
  140TIP3    H211244   0.338   5.219   6.093
  141TIP3   OH211245   0.013   0.162   5.988
  141TIP3    H111246  -0.076   0.203   5.988
  141TIP3    H211247   0.048   0.193   5.904
  142TIP3   OH211248   2.298   2.094   1.969
  142TIP3    H111249   2.248   2.174   1.951
  142TIP3    H211250   2.387   2.135   1.980
  143TIP3   OH211251   2.475   1.676   2.024
  143TIP3    H111252   2.476   1.773   2.015
  143TIP3    H211253   2.380   1.664   2.041
  144TIP3   OH211254   3.553   2.335   2.107
  144TIP3    H111255   3.493   2.411   2.120
  144TIP3    H211256   3.584   2.320   2.197
  145TIP3   OH211257   3.377   2.478   1.768
  145TIP3    H111258   3.326   2.499   1.846
  145TIP3    H211259   3.425   2.561   1.752
  146TIP3   OH211260   3.594   2.713   1.982
  146TIP3    H111261   3.610   2.664   1.899
  146TIP3    H211262   3.681   2.754   1.994
  147TIP3   OH211263   3.338   1.187   2.022
  147TIP3    H111264   3.283   1.192   1.942
  147TIP3    H211265   3.304   1.107   2.064
  148TIP3   OH211266   1.996   3.991   1.918
  148TIP3    H111267   2.050   3.935   1.862
  148TIP3    H211268   1.932   4.024   1.852
  149TIP3   OH211269   2.360   4.211   1.952
  149TIP3    H111270   2.413   4.276   1.901
  149TIP3    H211271   2.392   4.234   2.041
  150TIP3   OH211272   2.745   4.468   2.042
  150TIP3    H111273   2.814   4.413   2.087
  150TIP3    H211274   2.670   4.411   2.064
  151TIP3   OH211275   2.538   4.386   1.849
  151TIP3    H111276   2.507   4.403   1.758
  151TIP3    H211277   2.606   4.453   1.860
  152TIP3   OH211278   1.089   0.888   1.960
  152TIP3    H111279   1.153   0.904   1.891
  152TIP3    H211280   1.122   0.948   2.029
  153TIP3   OH211281   1.209   1.346   2.056
  153TIP3    H111282   1.232   1.434   2.092
  153TIP3    H211283   1.118   1.361   2.026
  154TIP3   OH211284   4.159   1.128   1.997
  154TIP3    H111285   4.221   1.150   1.926
  154TIP3    H211286   4.075   1.151   1.956
  155TIP3   OH211287   1.518   0.532   1.982
  155TIP3    H111288   1.525   0.614   1.931
  155TIP3    H211289   1.459   0.478   1.926
  156TIP3   OH211290   4.504   3.618   1.969
  156TIP3    H111291   4.488   3.682   1.900
  156TIP3    H211292   4.552   3.673   2.032
  157TIP3   OH211293   4.912   3.926   2.010
  157TIP3    H111294   4.832   3.932   1.952
  157TIP3    H211295   4.904   4.010   2.058
  158TIP3   OH211296   0.417   4.127   1.916
  158TIP3    H111297   0.368   4.081   1.986
  158TIP3    H211298   0.453   4.049   1.869
  159TIP3   OH211299   0.281   0.749   1.983
  159TIP3    H111300   0.341   0.796   2.045
  159TIP3    H211301   0.343   0.706   1.923
  160TIP3   OH211302   0.623   0.875   1.793
  160TIP3    H111303   0.596   0.968   1.794
  160TIP3    H211304   0.593   0.845   1.879
  161TIP3   OH211305   1.125   0.511   2.015
  161TIP3    H111306   1.076   0.438   2.058
  161TIP3    H211307   1.054   0.574   2.002
  162TIP3   OH211308   0.726   0.194   1.991
  162TIP3    H111309   0.648   0.208   2.046
  162TIP3    H211310   0.705   0.239   1.908
  163TIP3   OH211311   4.858   1.177   1.915
  163TIP3    H111312   4.807   1.258   1.934
  163TIP3    H211313   4.793   1.124   1.866
  164TIP3   OH211314   5.138   0.735   1.983
  164TIP3    H111315   5.143   0.832   1.984
  164TIP3    H211316   5.194   0.719   1.907
  165TIP3   OH211317   5.061   1.001   1.962
  165TIP3    H111318   5.098   1.045   1.884
  165TIP3    H211319   4.975   1.049   1.968
  166TIP3   OH211320   4.900   0.584   1.985
  166TIP3    H111321   4.979   0.641   1.985
  166TIP3    H211322   4.847   0.633   2.050
  167TIP3   OH211323   1.198   0.973   6.661
  167TIP3    H111324   1.223   1.055   6.705
  167TIP3    H211325   1.129   1.006   6.603
  168TIP3   OH211326   1.103   0.907   7.046
  168TIP3    H111327   1.140   0.882   7.133
  168TIP3    H211328   1.051   0.826   7.026
  169TIP3   OH211329   0.297   0.877   7.166
  169TIP3    H111330   0.291   0.784   7.196
  169TIP3    H211331   0.366   0.908   7.226
  170TIP3   OH211332   1.419   1.225   6.900
  170TIP3    H111333   1.403   1.142   6.948
  170TIP3    H211334   1.451   1.279   6.973
  171TIP3   OH211335   0.386   1.374   7.019
  171TIP3    H111336   0.338   1.290   7.011
  171TIP3    H211337   0.475   1.347   6.990
  172TIP3   OH211338   0.019   0.693   6.624
  172TIP3    H111339  -0.042   0.768   6.613
  172TIP3    H211340   0.029   0.666   6.530
  173TIP3   OH211341   0.176   0.916   6.793
  173TIP3    H111342   0.192   0.825   6.828
  173TIP3    H211343   0.245   0.914   6.725
  174TIP3   OH211344   1.155   1.714   6.882
  174TIP3    H111345   1.235   1.658   6.889
  174TIP3    H211346   1.100   1.673   6.950
  175TIP3   OH211347   0.897   1.198   7.107
  175TIP3    H111348   0.914   1.125   7.047
  175TIP3    H211349   0.988   1.229   7.123
  176TIP3   OH211350   1.783   0.255   7.102
  176TIP3    H111351   1.794   0.326   7.168
  176TIP3    H211352   1.857   0.276   7.041
  177TIP3   OH211353   1.261   0.600   7.118
  177TIP3    H111354   1.179   0.548   7.129
  177TIP3    H211355   1.251   0.629   7.024
  178TIP3   OH211356   0.548   0.443   6.815
  178TIP3    H111357   0.525   0.511   6.748
  178TIP3    H211358   0.527   0.364   6.760
  179TIP3   OH211359   1.332   0.388   6.646
  179TIP3    H111360   1.379   0.403   6.731
  179TIP3    H211361   1.375   0.455   6.591
  180TIP3   OH211362   0.262   0.674   6.886
  180TIP3    H111363   0.304   0.649   6.970
  180TIP3    H211364   0.256   0.586   6.846
  181TIP3   OH211365   1.800   0.448   7.337
  181TIP3    H111366   1.756   0.535   7.340
  181TIP3    H211367   1.866   0.458   7.407
  182TIP3   OH211368   0.480   0.326   7.219
  182TIP3    H111369   0.442   0.381   7.146
  182TIP3    H211370   0.401   0.318   7.277
  183TIP3   OH211371   1.187   1.261   6.586
  183TIP3    H111372   1.164   1.292   6.497
  183TIP3    H211373   1.142   1.327   6.643
  184TIP3   OH211374   0.691   1.077   7.244
  184TIP3    H111375   0.629   1.144   7.281
  184TIP3    H211376   0.757   1.135   7.198
  185TIP3   OH211377   1.512   0.455   6.851
  185TIP3    H111378   1.517   0.373   6.902
  185TIP3    H211379   1.597   0.496   6.877
  186TIP3   OH211380   0.417   0.524   7.040
  186TIP3    H111381   0.485   0.579   7.086
  186TIP3    H211382   0.467   0.496   6.959
  187TIP3   OH211383   0.560   1.310   7.295
  187TIP3    H111384   0.532   1.369   7.224
  187TIP3    H211385   0.474   1.298   7.341
  188TIP3   OH211386   1.496   1.383   7.113
  188TIP3    H111387   1.400   1.393   7.131
  188TIP3    H211388   1.512   1.470   7.070
  189TIP3   OH211389   1.524   0.255   7.199
  189TIP3    H111390   1.474   0.173   7.179
  189TIP3    H211391   1.614   0.227   7.170
  190TIP3   OH211392   0.848   0.115   6.975
  190TIP3    H111393   0.848   0.028   7.015
  190TIP3    H211394   0.756   0.146   6.999
  191TIP3   OH211395   1.369   1.558   6.759
  191TIP3    H111396   1.409   1.488   6.703
  191TIP3    H211397   1.434   1.629   6.749
  192TIP3   OH211398   1.482   1.346   6.596
  192TIP3    H111399   1.415   1.306   6.538
  192TIP3    H211400   1.472   1.289   6.674
  193TIP3   OH211401   1.617   1.236   7.472
  193TIP3    H111402   1.596   1.164   7.408
  193TIP3    H211403   1.630   1.311   7.411
  194TIP3   OH211404   1.791   0.869   7.205
  194TIP3    H111405   1.752   0.950   7.242
  194TIP3    H211406   1.874   0.904   7.167
  195TIP3   OH211407   1.433   0.803   7.416
  195TIP3    H111408   1.462   0.889   7.451
  195TIP3    H211409   1.353   0.829   7.366
  196TIP3   OH211410   0.698   1.342   6.967
  196TIP3    H111411   0.694   1.325   6.870
  196TIP3    H211412   0.778   1.295   6.996
  197TIP3   OH211413   0.639   0.888   7.062
  197TIP3    H111414   0.624   0.937   6.980
  197TIP3    H211415   0.653   0.958   7.130
  198TIP3   OH211416   1.247   1.456   7.149
  198TIP3    H111417   1.237   1.529   7.212
  198TIP3    H211418   1.200   1.383   7.196
  199TIP3   OH211419   0.696   1.328   7.529
  199TIP3    H111420   0.621   1.375   7.572
  199TIP3    H211421   0.656   1.316   7.440
  200TIP3   OH211422   0.412   0.922   7.475
  200TIP3    H111423   0.398   0.994   7.539
  200TIP3    H211424   0.319   0.894   7.457
  201TIP3   OH211425   1.116   1.515   6.672
  201TIP3    H111426   1.192   1.538   6.730
  201TIP3    H211427   1.065   1.597   6.669
  202TIP3   OH211428   0.516   1.500   7.631
  202TIP3    H111429   0.524   1.547   7.544
  202TIP3    H211430   0.422   1.476   7.627
  203TIP3   OH211431   1.679   0.072   6.299
  203TIP3    H111432   1.589   0.063   6.335
  203TIP3    H211433   1.669   0.159   6.260
  204TIP3   OH211434   0.101   1.156   7.376
  204TIP3    H111435   0.029   1.162   7.312
  204TIP3    H211436   0.139   1.070   7.354
  205TIP3   OH211437   0.103   1.477   6.974
  205TIP3    H111438   0.175   1.428   7.017
  205TIP3    H211439   0.060   1.515   7.053
  206TIP3   OH211440   1.883   1.472   7.622
  206TIP3    H111441   1.879   1.374   7.617
  206TIP3    H211442   1.793   1.489   7.654
  207TIP3   OH211443   0.964   1.435   7.513
  207TIP3    H111444   0.977   1.521   7.558
  207TIP3    H211445   0.866   1.424   7.508
  208TIP3   OH211446   1.044   1.783   6.447
  208TIP3    H111447   1.037   1.810   6.353
  208TIP3    H211448   1.029   1.870   6.490
  209TIP3   OH211449   0.409   1.709   6.680
  209TIP3    H111450   0.435   1.684   6.771
  209TIP3    H211451   0.343   1.639   6.662
  210TIP3   OH211452   1.337   1.738   6.236
  210TIP3    H111453   1.281   1.667   6.204
  210TIP3    H211454   1.328   1.726   6.333
  211TIP3   OH211455   1.294   1.708   6.503
  211TIP3    H111456   1.201   1.740   6.500
  211TIP3    H211457   1.283   1.626   6.553
  212TIP3   OH211458   1.525   0.646   7.654
  212TIP3    H111459   1.492   0.678   7.569
  212TIP3    H211460   1.524   0.548   7.644
  213TIP3   OH211461   0.331   1.295   7.433
  213TIP3    H111462   0.331   1.263   7.526
  213TIP3    H211463   0.240   1.262   7.410
  214TIP3   OH211464   0.605   0.204   7.031
  214TIP3    H111465   0.522   0.166   6.996
  214TIP3    H211466   0.570   0.261   7.103
  215TIP3   OH211467   1.031   0.135   7.420
  215TIP3    H111468   0.987   0.129   7.507
  215TIP3    H211469   0.964   0.092   7.365
  216TIP3   OH211470   1.357   0.519   7.427
  216TIP3    H111471   1.319   0.491   7.514
  216TIP3    H211472   1.319   0.609   7.418
  217TIP3   OH211473   0.626   0.643   7.157
  217TIP3    H111474   0.606   0.671   7.249
  217TIP3    H211475   0.633   0.732   7.112
  218TIP3   OH211476   1.070   0.678   6.508
  218TIP3    H111477   1.054   0.773   6.502
  218TIP3    H211478   1.147   0.665   6.451
  219TIP3   OH211479   0.987   0.769   7.737
  219TIP3    H111480   0.969   0.674   7.724
  219TIP3    H211481   1.080   0.761   7.769
  220TIP3   OH211482   1.252   0.689   6.855
  220TIP3    H111483   1.228   0.759   6.791
  220TIP3    H211484   1.225   0.610   6.806
  221TIP3   OH211485   0.306   0.648   7.301
  221TIP3    H111486   0.342   0.677   7.386
  221TIP3    H211487   0.308   0.551   7.306
  222TIP3   OH211488   0.005   0.240   6.794
  222TIP3    H111489   0.081   0.286   6.836
  222TIP3    H211490   0.032   0.243   6.700
  223TIP3   OH211491   0.195   0.365   6.349
  223TIP3    H111492   0.281   0.405   6.331
  223TIP3    H211493   0.142   0.400   6.276
  224TIP3   OH211494   1.197   0.814   7.277
  224TIP3    H111495   1.230   0.734   7.229
  224TIP3    H211496   1.131   0.774   7.337
  225TIP3   OH211497   0.818   0.463   6.810
  225TIP3    H111498   0.722   0.439   6.815
  225TIP3    H211499   0.857   0.413   6.884
  226TIP3   OH211500   1.283   0.305   7.051
  226TIP3    H111501   1.198   0.292   7.097
  226TIP3    H211502   1.270   0.251   6.971
  227TIP3   OH211503   1.579   1.895   7.732
  227TIP3    H111504   1.587   1.991   7.715
  227TIP3    H211505   1.642   1.887   7.805
  228TIP3   OH211506   0.301   1.184   7.685
  228TIP3    H111507   0.383   1.162   7.737
  228TIP3    H211508   0.229   1.151   7.743
  229TIP3   OH211509   0.976   0.673   6.989
  229TIP3    H111510   1.011   0.649   6.902
  229TIP3    H211511   0.884   0.644   6.982
  230TIP3   OH211512   0.460   0.288   6.610
  230TIP3    H111513   0.422   0.200   6.625
  230TIP3    H211514   0.538   0.268   6.557
  231TIP3   OH211515   0.830   0.488   7.223
  231TIP3    H111516   0.753   0.544   7.198
  231TIP3    H211517   0.901   0.552   7.227
  232TIP3   OH211518   1.587   1.070   7.267
  232TIP3    H111519   1.623   1.103   7.182
  232TIP3    H211520   1.505   1.030   7.233
  233TIP3   OH211521   1.228   0.467   6.298
  233TIP3    H111522   1.164   0.492   6.230
  233TIP3    H211523   1.315   0.477   6.253
  234TIP3   OH211524   1.009   1.179   7.455
  234TIP3    H111525   1.008   1.146   7.545
  234TIP3    H211526   0.998   1.276   7.470
  235TIP3   OH211527   0.153   0.888   7.435
  235TIP3    H111528   0.130   0.902   7.529
  235TIP3    H211529   0.075   0.836   7.406
  236TIP3   OH211530   0.737   0.883   7.645
  236TIP3    H111531   0.726   0.878   7.548
  236TIP3    H211532   0.824   0.838   7.656
  237TIP3   OH211533   1.300   1.382   7.511
  237TIP3    H111534   1.216   1.404   7.471
  237TIP3    H211535   1.283   1.422   7.600
  238TIP3   OH211536   1.863   1.182   7.583
  238TIP3    H111537   1.779   1.204   7.537
  238TIP3    H211538   1.920   1.169   7.506
  239TIP3   OH211539   1.628   1.459   6.364
  239TIP3    H111540   1.591   1.452   6.454
  239TIP3    H211541   1.669   1.372   6.358
  240TIP3   OH211542   1.408   0.980   7.068
  240TIP3    H111543   1.318   0.948   7.050
  240TIP3    H211544   1.464   0.925   7.009
  241TIP3   OH211545   0.634   1.411   6.707
  241TIP3    H111546   0.700   1.469   6.666
  241TIP3    H211547   0.551   1.448   6.673
  242TIP3   OH211548   0.831   1.602   7.298
  242TIP3    H111549   0.890   1.671   7.261
  242TIP3    H211550   0.885   1.570   7.371
  243TIP3   OH211551   0.675   1.695   6.609
  243TIP3    H111552   0.582   1.708   6.636
  243TIP3    H211553   0.708   1.785   6.617
  244TIP3   OH211554   1.145   1.204   7.212
  244TIP3    H111555   1.092   1.172   7.289
  244TIP3    H211556   1.193   1.124   7.187
  245TIP3   OH211557   1.479   1.620   7.484
  245TIP3    H111558   1.396   1.571   7.470
  245TIP3    H211559   1.475   1.687   7.411
  246TIP3   OH211560   0.253   0.345   7.380
  246TIP3    H111561   0.176   0.400   7.405
  246TIP3    H211562   0.209   0.257   7.388
  247TIP3   OH211563   0.209   1.564   7.228
  247TIP3    H111564   0.287   1.516   7.259
  247TIP3    H211565   0.164   1.585   7.310
  248TIP3   OH211566   0.844   1.426   6.092
  248TIP3    H111567   0.802   1.369   6.026
  248TIP3    H211568   0.784   1.416   6.168
  249TIP3   OH211569   0.685   1.320   6.318
  249TIP3    H111570   0.690   1.230   6.280
  249TIP3    H211571   0.774   1.341   6.348
  250TIP3   OH211572   1.133   0.372   7.325
  250TIP3    H111573   1.175   0.383   7.412
  250TIP3    H211574   1.090   0.284   7.339
  251TIP3   OH211575   1.197   0.252   6.452
  251TIP3    H111576   1.192   0.334   6.397
  251TIP3    H211577   1.257   0.288   6.523
  252TIP3   OH211578   0.930   1.514   6.352
  252TIP3    H111579   0.947   1.587   6.413
  252TIP3    H211580   0.989   1.534   6.278
  253TIP3   OH211581   0.938   0.443   6.559
  253TIP3    H111582   0.976   0.532   6.544
  253TIP3    H211583   0.894   0.458   6.645
  254TIP3   OH211584   1.058   0.637   7.424
  254TIP3    H111585   0.980   0.654   7.480
  254TIP3    H211586   1.059   0.540   7.417
  255TIP3   OH211587   1.041   0.145   6.637
  255TIP3    H111588   0.998   0.228   6.659
  255TIP3    H211589   1.105   0.179   6.570
  256TIP3   OH211590   0.636   0.365   6.250
  256TIP3    H111591   0.584   0.426   6.304
  256TIP3    H211592   0.708   0.340   6.310
  257TIP3   OH211593   1.602   0.412   7.543
  257TIP3    H111594   1.513   0.409   7.503
  257TIP3    H211595   1.658   0.388   7.467
  258TIP3   OH211596   1.506   0.777   6.905
  258TIP3    H111597   1.420   0.730   6.898
  258TIP3    H211598   1.558   0.720   6.963
  259TIP3   OH211599   0.170   0.630   6.128
  259TIP3    H111600   0.248   0.687   6.141
  259TIP3    H211601   0.180   0.614   6.032
  260TIP3   OH211602   1.553   1.659   7.059
  260TIP3    H111603   1.547   1.729   6.992
  260TIP3    H211604   1.648   1.665   7.084
  261TIP3   OH211605   0.351   0.147   6.930
  261TIP3    H111606   0.328   0.113   6.841
  261TIP3    H211607   0.344   0.066   6.985
  262TIP3   OH211608   0.227   1.519   6.619
  262TIP3    H111609   0.141   1.555   6.647
  262TIP3    H211610   0.233   1.552   6.527
  263TIP3   OH211611   0.152   1.802   7.735
  263TIP3    H111612   0.220   1.786   7.806
  263TIP3    H211613   0.141   1.712   7.701
  264TIP3   OH211614   0.585   1.651   7.843
  264TIP3    H111615   0.656   1.593   7.874
  264TIP3    H211616   0.574   1.618   7.751
  265TIP3   OH211617   1.067   1.583   6.094
  265TIP3    H111618   0.990   1.521   6.096
  265TIP3    H211619   1.101   1.563   6.005
  266TIP3   OH211620   1.234   1.479   7.747
  266TIP3    H111621   1.205   1.401   7.799
  266TIP3    H211622   1.318   1.500   7.794
  267TIP3   OH211623   1.450   1.485   6.045
  267TIP3    H111624   1.520   1.486   6.112
  267TIP3    H211625   1.457   1.572   6.006
  268TIP3   OH211626   0.052   1.120   7.808
  268TIP3    H111627   0.059   1.024   7.803
  268TIP3    H211628  -0.019   1.137   7.744
  269TIP3   OH211629   0.783   1.142   7.696
  269TIP3    H111630   0.757   1.200   7.620
  269TIP3    H211631   0.772   1.050   7.662
  270TIP3   OH211632   1.374   1.132   7.529
  270TIP3    H111633   1.461   1.176   7.541
  270TIP3    H211634   1.321   1.211   7.503
  271TIP3   OH211635   0.145   0.857   7.738
  271TIP3    H111636   0.229   0.867   7.785
  271TIP3    H211637   0.126   0.765   7.762
  272TIP3   OH211638   0.601   0.761   7.386
  272TIP3    H111639   0.543   0.828   7.431
  272TIP3    H211640   0.685   0.810   7.377
  273TIP3   OH211641   1.122   1.058   7.822
  273TIP3    H111642   1.188   0.998   7.784
  273TIP3    H211643   1.052   0.999   7.855
  274TIP3   OH211644   0.644   0.570   7.571
  274TIP3    H111645   0.655   0.482   7.529
  274TIP3    H211646   0.631   0.628   7.493
  275TIP3   OH211647   0.697   0.327   7.386
  275TIP3    H111648   0.750   0.370   7.314
  275TIP3    H211649   0.613   0.309   7.338
  276TIP3   OH211650   0.843   0.899   7.374
  276TIP3    H111651   0.934   0.933   7.383
  276TIP3    H211652   0.795   0.975   7.333
  277TIP3   OH211653   1.252   0.655   7.853
  277TIP3    H111654   1.287   0.569   7.881
  277TIP3    H211655   1.331   0.698   7.817
  278TIP3   OH211656   1.338   0.926   7.708
  278TIP3    H111657   1.341   0.992   7.634
  278TIP3    H211658   1.424   0.884   7.699
  279TIP3   OH211659   0.455   0.649   7.845
  279TIP3    H111660   0.420   0.562   7.815
  279TIP3    H211661   0.517   0.668   7.771
  280TIP3   OH211662   0.779   0.060   7.324
  280TIP3    H111663   0.740   0.142   7.356
  280TIP3    H211664   0.705   0.016   7.278
  281TIP3   OH211665   0.904   0.507   7.702
  281TIP3    H111666   0.884   0.454   7.781
  281TIP3    H211667   0.842   0.466   7.641
  282TIP3   OH211668   1.219   0.424   7.647
  282TIP3    H111669   1.130   0.451   7.677
  282TIP3    H211670   1.248   0.367   7.723
  283TIP3   OH211671   1.304   0.268   7.864
  283TIP3    H111672   1.317   0.175   7.835
  283TIP3    H211673   1.316   0.268   7.960
  284TIP3   OH211674   0.319   0.419   7.789
  284TIP3    H111675   0.296   0.349   7.724
  284TIP3    H211676   0.295   0.372   7.873
  285TIP3   OH211677   0.832   0.033   7.616
  285TIP3    H111678   0.776  -0.014   7.681
  285TIP3    H211679   0.775   0.037   7.537
  286TIP3   OH211680   0.882   0.231   7.851
  286TIP3    H111681   0.902   0.141   7.823
  286TIP3    H211682   0.784   0.233   7.845
  287TIP3   OH211683   0.046   1.887   6.591
  287TIP3    H111684  -0.025   1.837   6.549
  287TIP3    H211685   0.059   1.838   6.674
  288TIP3   OH211686   0.118   1.700   6.809
  288TIP3    H111687   0.137   1.606   6.833
  288TIP3    H211688   0.175   1.742   6.878
  289TIP3   OH211689   1.803   1.757   7.098
  289TIP3    H111690   1.850   1.785   7.178
  289TIP3    H211691   1.774   1.841   7.060
  290TIP3   OH211692   1.831   1.655   7.400
  290TIP3    H111693   1.772   1.590   7.354
  290TIP3    H211694   1.825   1.619   7.491
  291TIP3   OH211695   1.702   1.250   7.905
  291TIP3    H111696   1.609   1.224   7.885
  291TIP3    H211697   1.691   1.333   7.953
  292TIP3   OH211698   1.778   1.149   6.429
  292TIP3    H111699   1.871   1.176   6.420
  292TIP3    H211700   1.787   1.081   6.500
  293TIP3   OH211701   1.789   0.932   6.602
  293TIP3    H111702   1.724   0.863   6.626
  293TIP3    H211703   1.839   0.939   6.686
  294TIP3   OH211704   1.756   1.152   7.067
  294TIP3    H111705   1.839   1.099   7.064
  294TIP3    H211706   1.790   1.241   7.049
  295TIP3   OH211707   1.659   1.463   7.319
  295TIP3    H111708   1.583   1.510   7.359
  295TIP3    H211709   1.618   1.423   7.238
  296TIP3   OH211710   1.611   0.741   6.647
  296TIP3    H111711   1.572   0.655   6.621
  296TIP3    H211712   1.573   0.758   6.736
  297TIP3   OH211713   0.181   1.074   7.019
  297TIP3    H111714   0.172   1.030   6.932
  297TIP3    H211715   0.230   1.004   7.069
  298TIP3   OH211716   1.691   0.924   7.594
  298TIP3    H111717   1.741   0.842   7.613
  298TIP3    H211718   1.764   0.989   7.585
  299TIP3   OH211719   1.810   0.687   7.656
  299TIP3    H111720   1.722   0.645   7.647
  299TIP3    H211721   1.869   0.612   7.635
  300TIP3   OH211722   1.518   0.526   6.489
  300TIP3    H111723   1.552   0.438   6.518
  300TIP3    H211724   1.555   0.532   6.400
  301TIP3   OH211725   1.678   0.560   7.080
  301TIP3    H111726   1.772   0.569   7.051
  301TIP3    H211727   1.689   0.604   7.167
  302TIP3   OH211728   1.658   0.670   7.332
  302TIP3    H111729   1.577   0.709   7.371
  302TIP3    H211730   1.704   0.752   7.303
  303TIP3   OH211731   0.073   0.521   7.766
  303TIP3    H111732   0.160   0.489   7.738
  303TIP3    H211733   0.021   0.438   7.756
  304TIP3   OH211734   1.943   0.041   7.885
  304TIP3    H111735   1.892  -0.042   7.876
  304TIP3    H211736   1.915   0.089   7.806
  305TIP3   OH211737   1.612   0.284   6.527
  305TIP3    H111738   1.644   0.233   6.604
  305TIP3    H211739   1.553   0.220   6.483
  306TIP3   OH211740   0.225   0.383   6.859
  306TIP3    H111741   0.300   0.321   6.855
  306TIP3    H211742   0.222   0.402   6.954
  307TIP3   OH211743   0.049   0.659   7.066
  307TIP3    H111744   0.081   0.670   6.975
  307TIP3    H211745   0.106   0.720   7.114
  308TIP3   OH211746   1.757   0.205   7.713
  308TIP3    H111747   1.688   0.272   7.730
  308TIP3    H211748   1.744   0.189   7.616
  309TIP3   OH211749   0.085   0.217   6.542
  309TIP3    H111750  -0.002   0.238   6.505
  309TIP3    H211751   0.142   0.265   6.477
  310TIP3   OH211752   1.558   1.782   6.690
  310TIP3    H111753   1.530   1.831   6.609
  310TIP3    H211754   1.517   1.838   6.757
  311TIP3   OH211755   0.090   0.111   7.327
  311TIP3    H111756   0.055   0.025   7.356
  311TIP3    H211757   0.031   0.144   7.256
  312TIP3   OH211758   0.236   1.443   7.716
  312TIP3    H111759   0.247   1.346   7.712
  312TIP3    H211760   0.258   1.466   7.807
  313TIP3   OH211761   0.567   1.610   7.383
  313TIP3    H111762   0.556   1.696   7.337
  313TIP3    H211763   0.655   1.585   7.349
  314TIP3   OH211764   0.957   1.707   7.600
  314TIP3    H111765   0.971   1.689   7.695
  314TIP3    H211766   1.046   1.742   7.580
  315TIP3   OH211767   1.195   1.817   7.599
  315TIP3    H111768   1.279   1.808   7.551
  315TIP3    H211769   1.220   1.855   7.686
  316TIP3   OH211770   1.710   0.100   7.466
  316TIP3    H111771   1.617   0.107   7.441
  316TIP3    H211772   1.717   0.004   7.481
  317TIP3   OH211773   0.313   1.899   7.344
  317TIP3    H111774   0.241   1.941   7.292
  317TIP3    H211775   0.285   1.924   7.434
  318TIP3   OH211776   0.556   1.844   7.245
  318TIP3    H111777   0.470   1.870   7.288
  318TIP3    H211778   0.540   1.873   7.154
  319TIP3   OH211779   1.008   1.787   7.179
  319TIP3    H111780   0.969   1.826   7.098
  319TIP3    H211781   1.014   1.869   7.234
  320TIP3   OH211782   1.214   1.661   7.320
  320TIP3    H111783   1.148   1.698   7.257
  320TIP3    H211784   1.278   1.734   7.322
  321TIP3   OH211785   1.507   1.800   7.290
  321TIP3    H111786   1.517   1.893   7.261
  321TIP3    H211787   1.510   1.754   7.204
  322TIP3   OH211788   0.259   1.746   7.035
  322TIP3    H111789   0.219   1.692   7.106
  322TIP3    H211790   0.342   1.697   7.014
  323TIP3   OH211791   0.468   1.627   6.928
  323TIP3    H111792   0.450   1.538   6.963
  323TIP3    H211793   0.563   1.639   6.950
  324TIP3   OH211794   0.719   1.631   7.017
  324TIP3    H111795   0.743   1.537   7.004
  324TIP3    H211796   0.728   1.639   7.114
  325TIP3   OH211797   1.023   0.301   6.929
  325TIP3    H111798   0.955   0.237   6.960
  325TIP3    H211799   1.068   0.242   6.868
  326TIP3   OH211800   1.561   0.055   6.887
  326TIP3    H111801   1.636   0.076   6.826
  326TIP3    H211802   1.486   0.090   6.836
  327TIP3   OH211803   1.754   0.152   6.713
  327TIP3    H111804   1.815   0.106   6.655
  327TIP3    H211805   1.812   0.227   6.741
  328TIP3   OH211806   0.319   0.069   6.663
  328TIP3    H111807   0.242   0.111   6.620
  328TIP3    H211808   0.300  -0.026   6.649
  329TIP3   OH211809   0.775   0.171   6.716
  329TIP3    H111810   0.844   0.124   6.667
  329TIP3    H211811   0.810   0.168   6.807
  330TIP3   OH211812   1.282   0.096   6.817
  330TIP3    H111813   1.244   0.103   6.728
  330TIP3    H211814   1.285  -0.001   6.830
  331TIP3   OH211815   1.433   0.131   6.379
  331TIP3    H111816   1.344   0.171   6.371
  331TIP3    H211817   1.422   0.067   6.453
  332TIP3   OH211818   0.164   1.691   6.405
  332TIP3    H111819   0.138   1.699   6.312
  332TIP3    H211820   0.175   1.789   6.420
  333TIP3   OH211821   0.405   0.199   6.149
  333TIP3    H111822   0.383   0.263   6.080
  333TIP3    H211823   0.491   0.237   6.176
  334TIP3   OH211824   0.846   0.257   6.392
  334TIP3    H111825   0.933   0.221   6.412
  334TIP3    H211826   0.853   0.341   6.443
  335TIP3   OH211827   1.044   1.859   6.185
  335TIP3    H111828   1.067   1.933   6.124
  335TIP3    H211829   1.078   1.781   6.137
  336TIP3   OH211830   0.242   0.181   7.658
  336TIP3    H111831   0.194   0.114   7.608
  336TIP3    H211832   0.329   0.137   7.670
  337TIP3   OH211833   0.471   0.055   7.759
  337TIP3    H111834   0.539   0.119   7.787
  337TIP3    H211835   0.474  -0.008   7.832
  338TIP3   OH211836   1.357   5.205   7.760
  338TIP3    H111837   1.298   5.163   7.826
  338TIP3    H211838   1.410   5.131   7.725
  339TIP3   OH211839   1.662   1.639   7.669
  339TIP3    H111840   1.606   1.617   7.590
  339TIP3    H211841   1.634   1.732   7.683
  340TIP3   OH211842   3.085   1.005   6.680
  340TIP3    H111843   3.072   1.097   6.647
  340TIP3    H211844   3.025   0.963   6.615
  341TIP3   OH211845   2.973   0.914   7.020
  341TIP3    H111846   2.999   0.864   7.101
  341TIP3    H211847   2.915   0.849   6.978
  342TIP3   OH211848   2.194   0.877   7.160
  342TIP3    H111849   2.176   0.791   7.203
  342TIP3    H211850   2.286   0.893   7.187
  343TIP3   OH211851   3.316   1.209   6.901
  343TIP3    H111852   3.410   1.184   6.911
  343TIP3    H211853   3.318   1.294   6.951
  344TIP3   OH211854   2.274   1.399   7.027
  344TIP3    H111855   2.244   1.309   7.005
  344TIP3    H211856   2.370   1.384   7.017
  345TIP3   OH211857   1.984   0.698   6.568
  345TIP3    H111858   1.982   0.791   6.543
  345TIP3    H211859   1.891   0.672   6.556
  346TIP3   OH211860   1.983   0.926   6.797
  346TIP3    H111861   2.024   0.839   6.815
  346TIP3    H211862   2.059   0.978   6.768
  347TIP3   OH211863   3.039   1.732   6.844
  347TIP3    H111864   3.112   1.672   6.813
  347TIP3    H211865   3.024   1.694   6.932
  348TIP3   OH211866   2.799   1.126   7.121
  348TIP3    H111867   2.844   1.044   7.092
  348TIP3    H211868   2.875   1.181   7.148
  349TIP3   OH211869   3.648   0.249   7.100
  349TIP3    H111870   3.661   0.316   7.170
  349TIP3    H211871   3.717   0.278   7.039
  350TIP3   OH211872   3.155   0.617   7.130
  350TIP3    H111873   3.169   0.521   7.144
  350TIP3    H211874   3.132   0.615   7.035
  351TIP3   OH211875   2.460   0.417   6.799
  351TIP3    H111876   2.463   0.499   6.746
  351TIP3    H211877   2.405   0.360   6.742
  352TIP3   OH211878   3.172   0.414   6.696
  352TIP3    H111879   3.252   0.406   6.753
  352TIP3    H211880   3.207   0.473   6.628
  353TIP3   OH211881   2.098   0.695   6.877
  353TIP3    H111882   2.172   0.667   6.934
  353TIP3    H211883   2.118   0.638   6.799
  354TIP3   OH211884   2.622   0.815   6.827
  354TIP3    H111885   2.685   0.755   6.870
  354TIP3    H211886   2.568   0.751   6.775
  355TIP3   OH211887   3.684   0.411   7.326
  355TIP3    H111888   3.638   0.493   7.303
  355TIP3    H211889   3.700   0.427   7.421
  356TIP3   OH211890   2.364   0.305   7.200
  356TIP3    H111891   2.318   0.328   7.118
  356TIP3    H211892   2.296   0.341   7.262
  357TIP3   OH211893   3.022   1.252   6.605
  357TIP3    H111894   2.928   1.241   6.584
  357TIP3    H211895   3.023   1.347   6.629
  358TIP3   OH211896   2.560   1.067   7.224
  358TIP3    H111897   2.507   1.138   7.266
  358TIP3    H211898   2.634   1.118   7.185
  359TIP3   OH211899   3.380   0.415   6.865
  359TIP3    H111900   3.396   0.357   6.941
  359TIP3    H211901   3.465   0.460   6.856
  360TIP3   OH211902   2.299   0.533   7.006
  360TIP3    H111903   2.365   0.580   7.062
  360TIP3    H211904   2.357   0.495   6.935
  361TIP3   OH211905   2.455   1.289   7.319
  361TIP3    H111906   2.433   1.357   7.254
  361TIP3    H211907   2.366   1.275   7.360
  362TIP3   OH211908   2.036   1.267   6.380
  362TIP3    H111909   1.978   1.309   6.315
  362TIP3    H211910   2.064   1.340   6.438
  363TIP3   OH211911   3.375   1.426   7.058
  363TIP3    H111912   3.283   1.452   7.085
  363TIP3    H211913   3.412   1.515   7.047
  364TIP3   OH211914   3.372   0.269   7.267
  364TIP3    H111915   3.288   0.309   7.238
  364TIP3    H211916   3.421   0.269   7.184
  365TIP3   OH211917   2.711   0.104   6.886
  365TIP3    H111918   2.759   0.040   6.941
  365TIP3    H211919   2.652   0.144   6.955
  366TIP3   OH211920   3.245   1.575   6.775
  366TIP3    H111921   3.249   1.508   6.704
  366TIP3    H211922   3.315   1.637   6.743
  367TIP3   OH211923   3.318   1.405   6.587
  367TIP3    H111924   3.328   1.352   6.505
  367TIP3    H211925   3.321   1.336   6.655
  368TIP3   OH211926   3.485   1.230   7.477
  368TIP3    H111927   3.491   1.162   7.406
  368TIP3    H211928   3.486   1.309   7.420
  369TIP3   OH211929   2.936   0.966   6.441
  369TIP3    H111930   2.878   0.988   6.365
  369TIP3    H211931   3.016   0.942   6.389
  370TIP3   OH211932   2.975   0.725   6.235
  370TIP3    H111933   3.034   0.802   6.230
  370TIP3    H211934   3.001   0.671   6.158
  371TIP3   OH211935   3.687   0.881   7.212
  371TIP3    H111936   3.653   0.962   7.252
  371TIP3    H211937   3.742   0.916   7.140
  372TIP3   OH211938   3.324   0.921   6.533
  372TIP3    H111939   3.244   0.912   6.588
  372TIP3    H211940   3.383   0.850   6.566
  373TIP3   OH211941   3.288   0.766   7.425
  373TIP3    H111942   3.275   0.854   7.464
  373TIP3    H211943   3.209   0.762   7.367
  374TIP3   OH211944   2.468   1.027   6.716
  374TIP3    H111945   2.418   1.004   6.634
  374TIP3    H211946   2.518   0.946   6.736
  375TIP3   OH211947   2.570   1.358   6.970
  375TIP3    H111948   2.574   1.361   6.872
  375TIP3    H211949   2.629   1.284   6.991
  376TIP3   OH211950   2.492   0.860   7.067
  376TIP3    H111951   2.533   0.873   6.978
  376TIP3    H211952   2.534   0.932   7.120
  377TIP3   OH211953   3.130   1.470   7.154
  377TIP3    H111954   3.116   1.546   7.213
  377TIP3    H211955   3.098   1.395   7.208
  378TIP3   OH211956   2.592   1.322   7.544
  378TIP3    H111957   2.522   1.380   7.584
  378TIP3    H211958   2.553   1.312   7.454
  379TIP3   OH211959   3.162   0.897   6.313
  379TIP3    H111960   3.243   0.892   6.368
  379TIP3    H211961   3.190   0.948   6.235
  380TIP3   OH211962   2.293   0.945   7.450
  380TIP3    H111963   2.296   0.998   7.532
  380TIP3    H211964   2.198   0.922   7.447
  381TIP3   OH211965   2.936   1.528   6.660
  381TIP3    H111966   2.966   1.599   6.720
  381TIP3    H211967   2.888   1.582   6.596
  382TIP3   OH211968   2.415   1.516   7.595
  382TIP3    H111969   2.416   1.542   7.500
  382TIP3    H211970   2.319   1.499   7.607
  383TIP3   OH211971   3.576   0.041   6.294
  383TIP3    H111972   3.479   0.055   6.291
  383TIP3    H211973   3.606   0.133   6.294
  384TIP3   OH211974   2.329   0.921   6.503
  384TIP3    H111975   2.317   0.997   6.441
  384TIP3    H211976   2.332   0.845   6.444
  385TIP3   OH211977   1.996   1.163   7.350
  385TIP3    H111978   1.961   1.157   7.259
  385TIP3    H211979   2.029   1.071   7.361
  386TIP3   OH211980   1.960   1.439   7.050
  386TIP3    H111981   2.043   1.412   7.007
  386TIP3    H211982   1.964   1.536   7.045
  387TIP3   OH211983   3.776   1.475   7.616
  387TIP3    H111984   3.748   1.381   7.620
  387TIP3    H211985   3.698   1.516   7.660
  388TIP3   OH211986   2.870   1.450   7.486
  388TIP3    H111987   2.896   1.520   7.549
  388TIP3    H211988   2.787   1.418   7.523
  389TIP3   OH211989   2.899   1.818   6.444
  389TIP3    H111990   2.810   1.797   6.412
  389TIP3    H211991   2.885   1.897   6.500
  390TIP3   OH211992   2.255   1.709   6.706
  390TIP3    H111993   2.300   1.703   6.794
  390TIP3    H211994   2.199   1.630   6.705
  391TIP3   OH211995   3.205   1.747   6.440
  391TIP3    H111996   3.126   1.749   6.495
  391TIP3    H211997   3.275   1.722   6.503
  392TIP3   OH211998   3.413   0.636   7.634
  392TIP3    H111999   3.378   0.684   7.556
  392TIP3    H212000   3.422   0.544   7.603
  393TIP3   OH212001   2.214   1.287   7.435
  393TIP3    H112002   2.223   1.244   7.522
  393TIP3    H212003   2.125   1.255   7.409
  394TIP3   OH212004   2.532   0.164   7.059
  394TIP3    H112005   2.451   0.142   7.008
  394TIP3    H212006   2.487   0.208   7.134
  395TIP3   OH212007   2.941   0.118   7.429
  395TIP3    H112008   2.888   0.136   7.508
  395TIP3    H212009   2.867   0.104   7.366
  396TIP3   OH212010   3.202   0.480   7.465
  396TIP3    H112011   3.154   0.462   7.549
  396TIP3    H212012   3.215   0.577   7.469
  397TIP3   OH212013   2.494   0.620   7.169
  397TIP3    H112014   2.444   0.645   7.249
  397TIP3    H212015   2.496   0.709   7.127
  398TIP3   OH212016   2.429   0.670   6.698
  398TIP3    H112017   2.337   0.653   6.672
  398TIP3    H212018   2.470   0.683   6.609
  399TIP3   OH212019   3.010   0.727   6.564
  399TIP3    H112020   2.940   0.786   6.530
  399TIP3    H212021   3.059   0.712   6.482
  400TIP3   OH212022   2.890   0.747   7.718
  400TIP3    H112023   2.863   0.653   7.731
  400TIP3    H212024   2.977   0.745   7.766
  401TIP3   OH212025   3.115   0.649   6.857
  401TIP3    H112026   3.095   0.715   6.789
  401TIP3    H212027   3.109   0.568   6.803
  402TIP3   OH212028   2.185   0.639   7.284
  402TIP3    H112029   2.234   0.661   7.365
  402TIP3    H212030   2.184   0.540   7.288
  403TIP3   OH212031   2.465   0.347   5.981
  403TIP3    H112032   2.460   0.353   6.079
  403TIP3    H212033   2.391   0.404   5.955
  404TIP3   OH212034   1.920   0.359   6.760
  404TIP3    H112035   1.991   0.379   6.824
  404TIP3    H212036   1.960   0.389   6.677
  405TIP3   OH212037   1.971   0.469   6.282
  405TIP3    H112038   2.024   0.444   6.205
  405TIP3    H212039   1.918   0.544   6.248
  406TIP3   OH212040   3.049   0.808   7.274
  406TIP3    H112041   3.092   0.732   7.228
  406TIP3    H212042   2.983   0.758   7.328
  407TIP3   OH212043   2.757   0.417   6.761
  407TIP3    H112044   2.666   0.397   6.791
  407TIP3    H212045   2.809   0.394   6.840
  408TIP3   OH212046   2.173   0.532   6.678
  408TIP3    H112047   2.123   0.576   6.606
  408TIP3    H212048   2.219   0.459   6.631
  409TIP3   OH212049   2.524   0.635   6.459
  409TIP3    H112050   2.604   0.577   6.458
  409TIP3    H212051   2.506   0.647   6.363
  410TIP3   OH212052   3.157   0.346   7.084
  410TIP3    H112053   3.079   0.324   7.137
  410TIP3    H212054   3.141   0.296   7.002
  411TIP3   OH212055   2.452   0.694   6.213
  411TIP3    H112056   2.365   0.679   6.178
  411TIP3    H212057   2.475   0.774   6.162
  412TIP3   OH212058   3.482   1.870   7.733
  412TIP3    H112059   3.517   1.914   7.653
  412TIP3    H212060   3.543   1.902   7.801
  413TIP3   OH212061   2.229   1.118   7.652
  413TIP3    H112062   2.307   1.150   7.705
  413TIP3    H212063   2.164   1.107   7.724
  414TIP3   OH212064   2.844   0.670   6.954
  414TIP3    H112065   2.902   0.620   6.894
  414TIP3    H212066   2.816   0.600   7.016
  415TIP3   OH212067   2.315   0.294   6.602
  415TIP3    H112068   2.270   0.214   6.631
  415TIP3    H212069   2.375   0.264   6.532
  416TIP3   OH212070   2.755   0.512   7.177
  416TIP3    H112071   2.669   0.560   7.175
  416TIP3    H212072   2.807   0.563   7.239
  417TIP3   OH212073   3.497   1.105   7.244
  417TIP3    H112074   3.550   1.158   7.181
  417TIP3    H212075   3.449   1.050   7.181
  418TIP3   OH212076   2.867   1.144   7.443
  418TIP3    H112077   2.915   1.145   7.527
  418TIP3    H212078   2.840   1.237   7.436
  419TIP3   OH212079   2.264   1.103   6.910
  419TIP3    H112080   2.330   1.088   6.839
  419TIP3    H212081   2.286   1.033   6.972
  420TIP3   OH212082   2.027   0.887   7.441
  420TIP3    H112083   2.024   0.873   7.539
  420TIP3    H212084   1.950   0.836   7.412
  421TIP3   OH212085   2.625   0.869   7.642
  421TIP3    H112086   2.612   0.884   7.547
  421TIP3    H212087   2.712   0.825   7.645
  422TIP3   OH212088   3.174   1.402   7.499
  422TIP3    H112089   3.088   1.425   7.460
  422TIP3    H212090   3.159   1.429   7.593
  423TIP3   OH212091   3.734   1.195   7.588
  423TIP3    H112092   3.644   1.203   7.549
  423TIP3    H212093   3.787   1.186   7.507
  424TIP3   OH212094   3.538   1.472   6.355
  424TIP3    H112095   3.537   1.415   6.433
  424TIP3    H212096   3.630   1.459   6.324
  425TIP3   OH212097   3.272   0.946   7.059
  425TIP3    H112098   3.250   0.899   7.140
  425TIP3    H212099   3.317   0.876   7.004
  426TIP3   OH212100   2.503   1.448   6.711
  426TIP3    H112101   2.528   1.532   6.667
  426TIP3    H212102   2.412   1.439   6.680
  427TIP3   OH212103   2.685   1.217   6.679
  427TIP3    H112104   2.621   1.287   6.661
  427TIP3    H212105   2.630   1.136   6.686
  428TIP3   OH212106   2.714   1.636   7.332
  428TIP3    H112107   2.776   1.699   7.293
  428TIP3    H212108   2.774   1.586   7.391
  429TIP3   OH212109   2.486   1.687   6.563
  429TIP3    H112110   2.396   1.707   6.595
  429TIP3    H212111   2.538   1.757   6.607
  430TIP3   OH212112   3.041   1.198   7.223
  430TIP3    H112113   2.989   1.172   7.302
  430TIP3    H212114   3.098   1.120   7.212
  431TIP3   OH212115   3.245   1.260   6.214
  431TIP3    H112116   3.284   1.236   6.301
  431TIP3    H212117   3.158   1.217   6.214
  432TIP3   OH212118   3.333   1.635   7.517
  432TIP3    H112119   3.266   1.571   7.484
  432TIP3    H212120   3.357   1.688   7.437
  433TIP3   OH212121   3.733   1.800   6.242
  433TIP3    H112122   3.783   1.773   6.163
  433TIP3    H212123   3.702   1.888   6.216
  434TIP3   OH212124   2.175   0.369   7.375
  434TIP3    H112125   2.104   0.391   7.437
  434TIP3    H212126   2.172   0.271   7.383
  435TIP3   OH212127   3.370   1.170   6.446
  435TIP3    H112128   3.349   1.077   6.471
  435TIP3    H212129   3.463   1.159   6.414
  436TIP3   OH212130   2.106   1.561   7.280
  436TIP3    H112131   2.032   1.500   7.264
  436TIP3    H212132   2.182   1.499   7.288
  437TIP3   OH212133   2.313   1.131   6.330
  437TIP3    H112134   2.219   1.156   6.336
  437TIP3    H212135   2.356   1.212   6.303
  438TIP3   OH212136   2.988   0.371   7.348
  438TIP3    H112137   3.072   0.397   7.391
  438TIP3    H212138   2.981   0.279   7.377
  439TIP3   OH212139   3.079   0.295   6.464
  439TIP3    H112140   3.127   0.343   6.395
  439TIP3    H212141   3.132   0.313   6.543
  440TIP3   OH212142   2.737   0.480   6.499
  440TIP3    H112143   2.832   0.497   6.497
  440TIP3    H212144   2.728   0.457   6.594
  441TIP3   OH212145   2.915   0.627   7.423
  441TIP3    H112146   2.884   0.632   7.515
  441TIP3    H212147   2.927   0.530   7.409
  442TIP3   OH212148   2.893   0.166   6.618
  442TIP3    H112149   2.870   0.241   6.675
  442TIP3    H212150   2.951   0.208   6.551
  443TIP3   OH212151   2.633   1.643   6.338
  443TIP3    H112152   2.584   1.694   6.271
  443TIP3    H212153   2.570   1.652   6.413
  444TIP3   OH212154   2.510   0.256   6.271
  444TIP3    H112155   2.575   0.312   6.316
  444TIP3    H212156   2.575   0.193   6.231
  445TIP3   OH212157   3.470   0.386   7.522
  445TIP3    H112158   3.374   0.391   7.510
  445TIP3    H212159   3.492   0.344   7.437
  446TIP3   OH212160   3.379   0.746   6.905
  446TIP3    H112161   3.312   0.676   6.917
  446TIP3    H212162   3.453   0.710   6.958
  447TIP3   OH212163   2.027   0.688   6.048
  447TIP3    H112164   1.933   0.707   6.030
  447TIP3    H212165   2.039   0.607   5.998
  448TIP3   OH212166   3.461   1.688   7.090
  448TIP3    H112167   3.453   1.758   7.022
  448TIP3    H212168   3.558   1.683   7.097
  449TIP3   OH212169   2.266   0.122   6.939
  449TIP3    H112170   2.208   0.099   6.864
  449TIP3    H212171   2.270   0.035   6.983
  450TIP3   OH212172   2.109   1.489   6.576
  450TIP3    H112173   2.022   1.505   6.615
  450TIP3    H212174   2.108   1.548   6.498
  451TIP3   OH212175   2.016   1.759   7.701
  451TIP3    H112176   2.100   1.747   7.752
  451TIP3    H212177   1.969   1.678   7.728
  452TIP3   OH212178   2.488   1.616   7.864
  452TIP3    H112179   2.577   1.579   7.878
  452TIP3    H212180   2.472   1.584   7.773
  453TIP3   OH212181   3.126   1.494   7.745
  453TIP3    H112182   3.101   1.433   7.817
  453TIP3    H212183   3.206   1.536   7.786
  454TIP3   OH212184   2.076   1.122   7.878
  454TIP3    H112185   2.083   1.028   7.898
  454TIP3    H212186   1.990   1.122   7.831
  455TIP3   OH212187   2.703   1.145   7.713
  455TIP3    H112188   2.678   1.197   7.633
  455TIP3    H212189   2.714   1.053   7.680
  456TIP3   OH212190   3.237   1.129   7.512
  456TIP3    H112191   3.332   1.156   7.509
  456TIP3    H212192   3.200   1.220   7.506
  457TIP3   OH212193   2.081   0.854   7.714
  457TIP3    H112194   2.168   0.814   7.727
  457TIP3    H212195   2.034   0.815   7.791
  458TIP3   OH212196   2.440   0.732   7.397
  458TIP3    H112197   2.399   0.815   7.434
  458TIP3    H212198   2.533   0.763   7.391
  459TIP3   OH212199   3.025   1.028   7.838
  459TIP3    H112200   3.079   0.960   7.790
  459TIP3    H212201   2.946   0.976   7.862
  460TIP3   OH212202   2.543   0.528   7.550
  460TIP3    H112203   2.556   0.452   7.490
  460TIP3    H212204   2.485   0.587   7.498
  461TIP3   OH212205   2.610   0.311   7.330
  461TIP3    H112206   2.667   0.367   7.271
  461TIP3    H212207   2.522   0.323   7.289
  462TIP3   OH212208   2.701   0.898   7.373
  462TIP3    H112209   2.793   0.928   7.373
  462TIP3    H212210   2.655   0.968   7.321
  463TIP3   OH212211   3.121   0.682   7.859
  463TIP3    H112212   3.141   0.589   7.877
  463TIP3    H212213   3.206   0.713   7.826
  464TIP3   OH212214   3.223   0.904   7.695
  464TIP3    H112215   3.238   0.982   7.636
  464TIP3    H212216   3.313   0.871   7.704
  465TIP3   OH212217   2.395   0.589   7.800
  465TIP3    H112218   2.307   0.549   7.804
  465TIP3    H212219   2.422   0.570   7.707
  466TIP3   OH212220   2.679   0.057   7.370
  466TIP3    H112221   2.651   0.152   7.364
  466TIP3    H212222   2.602   0.018   7.323
  467TIP3   OH212223   2.777   0.499   7.757
  467TIP3    H112224   2.760   0.424   7.817
  467TIP3    H212225   2.713   0.483   7.686
  468TIP3   OH212226   3.057   0.418   7.688
  468TIP3    H112227   2.967   0.400   7.721
  468TIP3    H212228   3.111   0.366   7.750
  469TIP3   OH212229   3.221   0.271   7.872
  469TIP3    H112230   3.208   0.176   7.847
  469TIP3    H212231   3.231   0.270   7.968
  470TIP3   OH212232   2.187   0.389   7.766
  470TIP3    H112233   2.181   0.316   7.701
  470TIP3    H212234   2.186   0.341   7.851
  471TIP3   OH212235   2.737   0.096   7.629
  471TIP3    H112236   2.678   0.060   7.698
  471TIP3    H212237   2.698   0.061   7.547
  472TIP3   OH212238   2.744   0.249   7.882
  472TIP3    H112239   2.768   0.163   7.844
  472TIP3    H212240   2.647   0.245   7.869
  473TIP3   OH212241   1.874   1.821   6.619
  473TIP3    H112242   1.789   1.778   6.636
  473TIP3    H212243   1.930   1.781   6.689
  474TIP3   OH212244   1.955   1.669   6.838
  474TIP3    H112245   1.871   1.633   6.870
  474TIP3    H212246   1.986   1.723   6.913
  475TIP3   OH212247   3.736   1.730   7.084
  475TIP3    H112248   3.747   1.747   7.180
  475TIP3    H212249   3.819   1.766   7.050
  476TIP3   OH212250   3.694   1.670   7.390
  476TIP3    H112251   3.648   1.592   7.353
  476TIP3    H212252   3.732   1.634   7.471
  477TIP3   OH212253   3.574   1.257   7.919
  477TIP3    H112254   3.481   1.240   7.895
  477TIP3    H212255   3.573   1.341   7.966
  478TIP3   OH212256   3.631   1.109   6.400
  478TIP3    H112257   3.716   1.154   6.412
  478TIP3    H212258   3.627   1.048   6.478
  479TIP3   OH212259   3.680   0.949   6.612
  479TIP3    H112260   3.625   0.870   6.633
  479TIP3    H212261   3.751   0.938   6.679
  480TIP3   OH212262   3.641   1.177   7.036
  480TIP3    H112263   3.715   1.113   7.036
  480TIP3    H212264   3.690   1.261   7.034
  481TIP3   OH212265   3.531   1.458   7.304
  481TIP3    H112266   3.459   1.522   7.319
  481TIP3    H212267   3.500   1.418   7.220
  482TIP3   OH212268   3.749   0.934   6.216
  482TIP3    H112269   3.686   0.873   6.256
  482TIP3    H212270   3.729   1.016   6.265
  483TIP3   OH212271   3.499   0.740   6.660
  483TIP3    H112272   3.476   0.650   6.635
  483TIP3    H212273   3.463   0.750   6.751
  484TIP3   OH212274   1.985   1.010   7.081
  484TIP3    H112275   1.977   0.972   6.991
  484TIP3    H212276   2.072   0.972   7.108
  485TIP3   OH212277   3.575   0.926   7.577
  485TIP3    H112278   3.615   0.844   7.614
  485TIP3    H212279   3.651   0.987   7.577
  486TIP3   OH212280   3.686   0.694   7.657
  486TIP3    H112281   3.619   0.625   7.636
  486TIP3    H212282   3.770   0.644   7.648
  487TIP3   OH212283   3.562   0.604   7.055
  487TIP3    H112284   3.659   0.605   7.043
  487TIP3    H212285   3.560   0.628   7.150
  488TIP3   OH212286   3.521   0.665   7.330
  488TIP3    H112287   3.426   0.682   7.351
  488TIP3    H212288   3.559   0.754   7.344
  489TIP3   OH212289   1.953   0.467   7.628
  489TIP3    H112290   2.041   0.464   7.670
  489TIP3    H212291   1.907   0.406   7.689
  490TIP3   OH212292   3.820   0.048   7.879
  490TIP3    H112293   3.760  -0.014   7.835
  490TIP3    H212294   3.843   0.107   7.806
  491TIP3   OH212295   3.472   0.267   6.532
  491TIP3    H112296   3.525   0.214   6.594
  491TIP3    H212297   3.420   0.202   6.482
  492TIP3   OH212298   2.085   0.313   7.016
  492TIP3    H112299   2.149   0.243   6.993
  492TIP3    H212300   2.136   0.394   6.997
  493TIP3   OH212301   1.940   0.625   7.074
  493TIP3    H112302   1.991   0.644   6.992
  493TIP3    H212303   2.007   0.647   7.140
  494TIP3   OH212304   3.724   0.287   7.753
  494TIP3    H112305   3.630   0.312   7.769
  494TIP3    H212306   3.717   0.244   7.666
  495TIP3   OH212307   3.751   0.227   6.151
  495TIP3    H112308   3.730   0.154   6.090
  495TIP3    H212309   3.836   0.265   6.121
  496TIP3   OH212310   1.940   0.277   6.478
  496TIP3    H112311   1.843   0.279   6.479
  496TIP3    H212312   1.956   0.340   6.404
  497TIP3   OH212313   3.405   1.749   6.649
  497TIP3    H112314   3.474   1.714   6.587
  497TIP3    H212315   3.460   1.800   6.711
  498TIP3   OH212316   1.982   0.156   7.299
  498TIP3    H112317   1.904   0.153   7.355
  498TIP3    H212318   1.944   0.178   7.213
  499TIP3   OH212319   2.162   1.458   7.678
  499TIP3    H112320   2.066   1.466   7.664
  499TIP3    H212321   2.168   1.397   7.753
  500TIP3   OH212322   2.456   1.580   7.339
  500TIP3    H112323   2.446   1.677   7.321
  500TIP3    H212324   2.554   1.578   7.350
  501TIP3   OH212325   2.849   1.724   7.586
  501TIP3    H112326   2.848   1.675   7.672
  501TIP3    H212327   2.944   1.752   7.591
  502TIP3   OH212328   3.095   1.816   7.618
  502TIP3    H112329   3.179   1.798   7.574
  502TIP3    H212330   3.122   1.826   7.712
  503TIP3   OH212331   3.673   0.111   7.506
  503TIP3    H112332   3.589   0.116   7.459
  503TIP3    H212333   3.676   0.018   7.534
  504TIP3   OH212334   2.167   1.922   7.340
  504TIP3    H112335   2.119   1.990   7.288
  504TIP3    H212336   2.182   1.973   7.422
  505TIP3   OH212337   2.402   1.824   7.246
  505TIP3    H112338   2.308   1.844   7.257
  505TIP3    H212339   2.431   1.888   7.178
  506TIP3   OH212340   2.890   1.822   7.179
  506TIP3    H112341   2.816   1.859   7.128
  506TIP3    H212342   2.900   1.890   7.250
  507TIP3   OH212343   3.098   1.684   7.317
  507TIP3    H112344   3.047   1.736   7.253
  507TIP3    H212345   3.170   1.744   7.338
  508TIP3   OH212346   3.378   1.806   7.313
  508TIP3    H112347   3.390   1.900   7.295
  508TIP3    H212348   3.401   1.770   7.224
  509TIP3   OH212349   2.144   1.744   7.089
  509TIP3    H112350   2.139   1.678   7.161
  509TIP3    H212351   2.225   1.713   7.042
  510TIP3   OH212352   2.356   1.669   6.946
  510TIP3    H112353   2.327   1.577   6.956
  510TIP3    H212354   2.449   1.661   6.976
  511TIP3   OH212355   2.606   1.649   7.042
  511TIP3    H112356   2.640   1.562   7.015
  511TIP3    H212357   2.609   1.642   7.138
  512TIP3   OH212358   2.912   0.276   6.932
  512TIP3    H112359   2.830   0.225   6.919
  512TIP3    H212360   2.975   0.205   6.911
  513TIP3   OH212361   3.450   0.035   6.900
  513TIP3    H112362   3.523   0.096   6.881
  513TIP3    H212363   3.412   0.028   6.810
  514TIP3   OH212364   3.631   0.157   6.737
  514TIP3    H112365   3.677   0.091   6.684
  514TIP3    H212366   3.692   0.235   6.730
  515TIP3   OH212367   2.146   0.063   6.677
  515TIP3    H112368   2.096   0.083   6.596
  515TIP3    H212369   2.201  -0.014   6.651
  516TIP3   OH212370   2.619   0.186   6.640
  516TIP3    H112371   2.699   0.181   6.585
  516TIP3    H212372   2.659   0.171   6.728
  517TIP3   OH212373   3.118   0.081   6.870
  517TIP3    H112374   3.182   0.130   6.817
  517TIP3    H212375   3.155  -0.008   6.862
  518TIP3   OH212376   3.325   0.106   6.355
  518TIP3    H112377   3.293   0.147   6.270
  518TIP3    H212378   3.245   0.055   6.376
  519TIP3   OH212379   2.066   1.668   6.362
  519TIP3    H112380   2.127   1.659   6.288
  519TIP3    H212381   2.070   1.763   6.375
  520TIP3   OH212382   3.600   1.703   6.474
  520TIP3    H112383   3.568   1.632   6.414
  520TIP3    H212384   3.661   1.748   6.411
  521TIP3   OH212385   2.141   0.159   7.613
  521TIP3    H112386   2.088   0.079   7.623
  521TIP3    H212387   2.224   0.127   7.655
  522TIP3   OH212388   2.331   0.028   7.778
  522TIP3    H112389   2.405   0.088   7.796
  522TIP3    H212390   2.360  -0.053   7.824
  523TIP3   OH212391   2.187   1.747   6.063
  523TIP3    H112392   2.262   1.776   6.119
  523TIP3    H212393   2.212   1.800   5.983
  524TIP3   OH212394   3.218   5.195   7.794
  524TIP3    H112395   3.150   5.160   7.855
  524TIP3    H212396   3.271   5.115   7.777
  525TIP3   OH212397   3.553   1.609   7.677
  525TIP3    H112398   3.465   1.601   7.635
  525TIP3    H212399   3.555   1.706   7.695
  526TIP3   OH212400   4.924   1.021   6.705
  526TIP3    H112401   4.909   1.114   6.728
  526TIP3    H212402   4.867   1.003   6.628
  527TIP3   OH212403   4.838   0.907   7.076
  527TIP3    H112404   4.864   0.852   7.154
  527TIP3    H212405   4.810   0.839   7.011
  528TIP3   OH212406   4.046   0.862   7.167
  528TIP3    H112407   4.036   0.779   7.218
  528TIP3    H212408   4.119   0.905   7.214
  529TIP3   OH212409   4.195   1.355   6.991
  529TIP3    H112410   4.164   1.266   6.965
  529TIP3    H212411   4.290   1.336   6.991
  530TIP3   OH212412   3.858   0.672   6.538
  530TIP3    H112413   3.864   0.768   6.531
  530TIP3    H212414   3.767   0.659   6.570
  531TIP3   OH212415   3.853   0.899   6.808
  531TIP3    H112416   3.890   0.810   6.830
  531TIP3    H212417   3.935   0.950   6.800
  532TIP3   OH212418   4.927   1.722   6.891
  532TIP3    H112419   4.986   1.661   6.842
  532TIP3    H212420   4.921   1.677   6.977
  533TIP3   OH212421   4.693   1.176   7.124
  533TIP3    H112422   4.712   1.124   7.045
  533TIP3    H212423   4.778   1.170   7.170
  534TIP3   OH212424   4.975   0.569   7.086
  534TIP3    H112425   5.072   0.580   7.100
  534TIP3    H212426   4.971   0.582   6.989
  535TIP3   OH212427   4.363   0.391   6.846
  535TIP3    H112428   4.363   0.469   6.786
  535TIP3    H212429   4.314   0.327   6.790
  536TIP3   OH212430   5.066   0.471   6.699
  536TIP3    H112431   5.125   0.408   6.745
  536TIP3    H212432   5.128   0.540   6.666
  537TIP3   OH212433   3.988   0.683   6.882
  537TIP3    H112434   4.062   0.669   6.943
  537TIP3    H212435   4.022   0.638   6.802
  538TIP3   OH212436   4.473   0.822   6.826
  538TIP3    H112437   4.549   0.777   6.868
  538TIP3    H212438   4.431   0.744   6.782
  539TIP3   OH212439   4.240   0.296   7.209
  539TIP3    H112440   4.204   0.331   7.125
  539TIP3    H212441   4.164   0.315   7.269
  540TIP3   OH212442   4.908   1.284   6.575
  540TIP3    H112443   4.843   1.258   6.506
  540TIP3    H212444   4.871   1.368   6.609
  541TIP3   OH212445   4.440   1.082   7.214
  541TIP3    H112446   4.386   1.153   7.257
  541TIP3    H212447   4.518   1.129   7.180
  542TIP3   OH212448   4.187   0.519   7.021
  542TIP3    H112449   4.253   0.571   7.075
  542TIP3    H212450   4.247   0.476   6.955
  543TIP3   OH212451   4.323   1.310   7.317
  543TIP3    H112452   4.318   1.405   7.297
  543TIP3    H212453   4.229   1.294   7.342
  544TIP3   OH212454   4.603   0.102   6.904
  544TIP3    H112455   4.647   0.049   6.973
  544TIP3    H212456   4.538   0.149   6.963
  545TIP3   OH212457   5.096   1.576   6.727
  545TIP3    H112458   5.122   1.488   6.759
  545TIP3    H212459   5.169   1.630   6.766
  546TIP3   OH212460   4.817   0.941   6.443
  546TIP3    H112461   4.821   1.036   6.427
  546TIP3    H212462   4.784   0.913   6.354
  547TIP3   OH212463   4.808   0.850   6.183
  547TIP3    H112464   4.905   0.858   6.191
  547TIP3    H212465   4.798   0.779   6.118
  548TIP3   OH212466   5.114   0.938   6.543
  548TIP3    H112467   5.051   0.971   6.612
  548TIP3    H212468   5.199   0.970   6.576
  549TIP3   OH212469   5.130   0.704   7.424
  549TIP3    H112470   5.081   0.717   7.506
  549TIP3    H212471   5.061   0.726   7.357
  550TIP3   OH212472   4.329   1.009   6.704
  550TIP3    H112473   4.312   0.964   6.618
  550TIP3    H212474   4.381   0.939   6.750
  551TIP3   OH212475   4.478   1.329   6.959
  551TIP3    H112476   4.508   1.315   6.868
  551TIP3    H212477   4.547   1.289   7.014
  552TIP3   OH212478   4.365   0.873   7.073
  552TIP3    H112479   4.399   0.885   6.982
  552TIP3    H212480   4.397   0.954   7.118
  553TIP3   OH212481   5.035   1.474   7.131
  553TIP3    H112482   5.024   1.533   7.210
  553TIP3    H212483   5.056   1.389   7.171
  554TIP3   OH212484   4.509   1.317   7.514
  554TIP3    H112485   4.447   1.374   7.567
  554TIP3    H212486   4.457   1.312   7.431
  555TIP3   OH212487   5.076   0.877   6.268
  555TIP3    H112488   5.085   0.901   6.364
  555TIP3    H212489   5.112   0.955   6.223
  556TIP3   OH212490   4.161   0.955   7.445
  556TIP3    H112491   4.157   1.008   7.527
  556TIP3    H212492   4.070   0.918   7.445
  557TIP3   OH212493   4.801   1.532   6.639
  557TIP3    H112494   4.883   1.564   6.678
  557TIP3    H212495   4.739   1.590   6.685
  558TIP3   OH212496   4.351   1.501   7.635
  558TIP3    H112497   4.336   1.550   7.551
  558TIP3    H212498   4.257   1.477   7.653
  559TIP3   OH212499   4.286   0.857   6.474
  559TIP3    H112500   4.295   0.918   6.399
  559TIP3    H212501   4.278   0.773   6.426
  560TIP3   OH212502   3.863   1.148   7.354
  560TIP3    H112503   3.838   1.144   7.260
  560TIP3    H212504   3.901   1.058   7.368
  561TIP3   OH212505   3.853   1.433   7.050
  561TIP3    H112506   3.946   1.410   7.055
  561TIP3    H212507   3.855   1.524   7.080
  562TIP3   OH212508   4.769   1.426   7.476
  562TIP3    H112509   4.780   1.507   7.529
  562TIP3    H212510   4.679   1.398   7.497
  563TIP3   OH212511   4.799   1.852   6.419
  563TIP3    H112512   4.893   1.830   6.434
  563TIP3    H212513   4.783   1.913   6.493
  564TIP3   OH212514   4.158   1.729   6.660
  564TIP3    H112515   4.167   1.686   6.748
  564TIP3    H212516   4.089   1.671   6.619
  565TIP3   OH212517   5.022   1.705   6.496
  565TIP3    H112518   4.950   1.641   6.482
  565TIP3    H212519   5.063   1.671   6.578
  566TIP3   OH212520   4.081   1.296   7.425
  566TIP3    H112521   4.094   1.264   7.516
  566TIP3    H212522   4.000   1.245   7.401
  567TIP3   OH212523   4.413   0.149   7.077
  567TIP3    H112524   4.337   0.138   7.017
  567TIP3    H212525   4.365   0.200   7.145
  568TIP3   OH212526   4.807   0.073   7.460
  568TIP3    H112527   4.743   0.092   7.532
  568TIP3    H212528   4.746   0.065   7.385
  569TIP3   OH212529   5.184   0.442   7.448
  569TIP3    H112530   5.120   0.442   7.521
  569TIP3    H212531   5.181   0.536   7.422
  570TIP3   OH212532   4.817   0.309   6.170
  570TIP3    H112533   4.744   0.305   6.235
  570TIP3    H212534   4.779   0.274   6.087
  571TIP3   OH212535   4.378   0.630   7.171
  571TIP3    H112536   4.363   0.656   7.264
  571TIP3    H212537   4.370   0.720   7.130
  572TIP3   OH212538   4.340   0.614   6.705
  572TIP3    H112539   4.244   0.608   6.681
  572TIP3    H212540   4.383   0.606   6.616
  573TIP3   OH212541   4.918   0.700   6.527
  573TIP3    H112542   4.892   0.789   6.495
  573TIP3    H212543   4.985   0.671   6.462
  574TIP3   OH212544   4.828   0.713   7.683
  574TIP3    H112545   4.772   0.636   7.705
  574TIP3    H212546   4.900   0.700   7.748
  575TIP3   OH212547   4.961   0.677   6.831
  575TIP3    H112548   4.971   0.750   6.768
  575TIP3    H212549   4.988   0.601   6.775
  576TIP3   OH212550   4.056   0.630   7.304
  576TIP3    H112551   4.126   0.656   7.366
  576TIP3    H212552   4.071   0.534   7.299
  577TIP3   OH212553   3.789   0.380   6.741
  577TIP3    H112554   3.849   0.368   6.818
  577TIP3    H212555   3.840   0.348   6.665
  578TIP3   OH212556   3.866   0.493   6.303
  578TIP3    H112557   3.958   0.485   6.331
  578TIP3    H212558   3.827   0.536   6.381
  579TIP3   OH212559   4.908   0.742   7.284
  579TIP3    H112560   4.932   0.676   7.214
  579TIP3    H212561   4.845   0.690   7.339
  580TIP3   OH212562   4.632   0.425   6.773
  580TIP3    H112563   4.544   0.403   6.810
  580TIP3    H212564   4.687   0.412   6.852
  581TIP3   OH212565   4.070   0.561   6.655
  581TIP3    H112566   3.999   0.590   6.594
  581TIP3    H212567   4.101   0.477   6.618
  582TIP3   OH212568   4.433   0.546   6.457
  582TIP3    H112569   4.527   0.525   6.442
  582TIP3    H212570   4.411   0.588   6.372
  583TIP3   OH212571   5.101   0.238   7.102
  583TIP3    H112572   5.017   0.272   7.137
  583TIP3    H212573   5.075   0.201   7.016
  584TIP3   OH212574   4.094   1.135   7.651
  584TIP3    H112575   4.180   1.155   7.697
  584TIP3    H212576   4.042   1.099   7.724
  585TIP3   OH212577   4.715   0.690   6.936
  585TIP3    H112578   4.800   0.660   6.895
  585TIP3    H212579   4.708   0.628   7.010
  586TIP3   OH212580   4.208   0.296   6.652
  586TIP3    H112581   4.152   0.218   6.671
  586TIP3    H212582   4.246   0.276   6.565
  587TIP3   OH212583   4.626   0.514   7.157
  587TIP3    H112584   4.537   0.557   7.162
  587TIP3    H212585   4.670   0.542   7.239
  588TIP3   OH212586   4.707   1.192   6.416
  588TIP3    H112587   4.667   1.125   6.357
  588TIP3    H212588   4.654   1.179   6.498
  589TIP3   OH212589   5.047   0.425   6.239
  589TIP3    H112590   4.982   0.375   6.183
  589TIP3    H212591   5.045   0.511   6.198
  590TIP3   OH212592   4.768   1.119   7.444
  590TIP3    H112593   4.760   1.113   7.540
  590TIP3    H212594   4.753   1.214   7.430
  591TIP3   OH212595   5.166   0.639   6.364
  591TIP3    H112596   5.207   0.572   6.307
  591TIP3    H212597   5.159   0.716   6.304
  592TIP3   OH212598   4.173   1.087   6.926
  592TIP3    H112599   4.228   1.066   6.847
  592TIP3    H212600   4.185   1.008   6.981
  593TIP3   OH212601   3.905   0.893   7.450
  593TIP3    H112602   3.905   0.873   7.547
  593TIP3    H212603   3.831   0.838   7.419
  594TIP3   OH212604   4.592   0.874   7.629
  594TIP3    H112605   4.588   0.897   7.533
  594TIP3    H212606   4.674   0.820   7.629
  595TIP3   OH212607   5.092   1.441   7.485
  595TIP3    H112608   5.013   1.430   7.433
  595TIP3    H212609   5.055   1.478   7.568
  596TIP3   OH212610   5.122   0.974   7.123
  596TIP3    H112611   5.072   0.944   7.047
  596TIP3    H212612   5.200   1.020   7.084
  597TIP3   OH212613   4.372   1.430   6.686
  597TIP3    H112614   4.391   1.525   6.698
  597TIP3    H212615   4.276   1.435   6.672
  598TIP3   OH212616   4.540   1.176   6.630
  598TIP3    H112617   4.478   1.243   6.662
  598TIP3    H212618   4.499   1.095   6.668
  599TIP3   OH212619   4.616   1.607   7.327
  599TIP3    H112620   4.674   1.674   7.286
  599TIP3    H212621   4.686   1.548   7.363
  600TIP3   OH212622   4.411   1.722   6.578
  600TIP3    H112623   4.319   1.739   6.609
  600TIP3    H212624   4.455   1.804   6.611
  601TIP3   OH212625   4.966   1.157   7.258
  601TIP3    H112626   4.916   1.113   7.329
  601TIP3    H212627   4.997   1.083   7.202
  602TIP3   OH212628   5.129   1.282   6.205
  602TIP3    H112629   5.079   1.298   6.285
  602TIP3    H212630   5.060   1.286   6.136
  603TIP3   OH212631   4.033   0.368   7.364
  603TIP3    H112632   3.953   0.422   7.380
  603TIP3    H212633   3.996   0.276   7.373
  604TIP3   OH212634   4.022   1.575   7.252
  604TIP3    H112635   4.078   1.500   7.277
  604TIP3    H212636   3.983   1.599   7.338
  605TIP3   OH212637   4.849   0.334   7.385
  605TIP3    H112638   4.945   0.340   7.399
  605TIP3    H212639   4.834   0.240   7.406
  606TIP3   OH212640   4.985   0.314   6.486
  606TIP3    H112641   4.986   0.352   6.395
  606TIP3    H212642   4.985   0.394   6.542
  607TIP3   OH212643   4.741   0.488   6.533
  607TIP3    H112644   4.802   0.564   6.540
  607TIP3    H212645   4.702   0.489   6.623
  608TIP3   OH212646   4.759   0.592   7.446
  608TIP3    H112647   4.795   0.619   7.533
  608TIP3    H212648   4.785   0.498   7.445
  609TIP3   OH212649   4.796   0.183   6.626
  609TIP3    H112650   4.782   0.246   6.699
  609TIP3    H212651   4.858   0.236   6.571
  610TIP3   OH212652   4.338   0.292   6.254
  610TIP3    H112653   4.338   0.367   6.189
  610TIP3    H212654   4.401   0.332   6.317
  611TIP3   OH212655   4.131   0.107   6.949
  611TIP3    H112656   4.092   0.077   6.865
  611TIP3    H212657   4.126   0.026   7.005
  612TIP3   OH212658   3.972   1.572   6.563
  612TIP3    H112659   3.888   1.541   6.599
  612TIP3    H212660   3.953   1.555   6.467
  613TIP3   OH212661   3.886   1.764   7.703
  613TIP3    H112662   3.959   1.753   7.769
  613TIP3    H212663   3.870   1.670   7.682
  614TIP3   OH212664   4.380   1.606   7.887
  614TIP3    H112665   4.460   1.559   7.918
  614TIP3    H212666   4.375   1.571   7.797
  615TIP3   OH212667   5.047   1.516   7.734
  615TIP3    H112668   5.013   1.428   7.765
  615TIP3    H212669   5.142   1.505   7.752
  616TIP3   OH212670   3.923   1.165   7.881
  616TIP3    H112671   3.872   1.083   7.878
  616TIP3    H212672   3.884   1.206   7.803
  617TIP3   OH212673   4.588   1.141   7.707
  617TIP3    H112674   4.569   1.191   7.624
  617TIP3    H212675   4.593   1.046   7.678
  618TIP3   OH212676   5.088   1.124   7.573
  618TIP3    H112677   5.162   1.145   7.513
  618TIP3    H212678   5.014   1.166   7.526
  619TIP3   OH212679   3.963   0.855   7.716
  619TIP3    H112680   4.045   0.807   7.736
  619TIP3    H212681   3.908   0.820   7.789
  620TIP3   OH212682   4.323   0.754   7.395
  620TIP3    H112683   4.260   0.829   7.406
  620TIP3    H212684   4.408   0.803   7.398
  621TIP3   OH212685   4.916   1.009   7.837
  621TIP3    H112686   4.974   0.967   7.771
  621TIP3    H212687   4.894   0.938   7.900
  622TIP3   OH212688   4.437   0.534   7.566
  622TIP3    H112689   4.457   0.460   7.507
  622TIP3    H212690   4.443   0.609   7.506
  623TIP3   OH212691   4.486   0.318   7.344
  623TIP3    H112692   4.525   0.371   7.272
  623TIP3    H212693   4.395   0.302   7.312
  624TIP3   OH212694   4.569   0.906   7.366
  624TIP3    H112695   4.657   0.945   7.346
  624TIP3    H212696   4.512   0.967   7.313
  625TIP3   OH212697   5.049   0.635   7.889
  625TIP3    H112698   5.127   0.585   7.858
  625TIP3    H212699   5.090   0.704   7.942
  626TIP3   OH212700   4.254   0.636   7.840
  626TIP3    H112701   4.187   0.569   7.811
  626TIP3    H212702   4.300   0.662   7.757
  627TIP3   OH212703   4.534   0.047   7.368
  627TIP3    H112704   4.519   0.143   7.371
  627TIP3    H212705   4.444   0.010   7.349
  628TIP3   OH212706   4.674   0.465   7.762
  628TIP3    H112707   4.642   0.409   7.836
  628TIP3    H212708   4.593   0.467   7.708
  629TIP3   OH212709   4.938   0.418   7.661
  629TIP3    H112710   4.851   0.395   7.700
  629TIP3    H212711   5.001   0.381   7.726
  630TIP3   OH212712   5.120   0.309   7.849
  630TIP3    H112713   5.126   0.212   7.829
  630TIP3    H212714   5.109   0.309   7.945
  631TIP3   OH212715   4.076   0.414   7.775
  631TIP3    H112716   4.050   0.350   7.705
  631TIP3    H212717   4.069   0.359   7.856
  632TIP3   OH212718   4.602   0.082   7.648
  632TIP3    H112719   4.569   0.027   7.722
  632TIP3    H212720   4.549   0.053   7.572
  633TIP3   OH212721   4.615   0.226   7.926
  633TIP3    H112722   4.642   0.155   7.866
  633TIP3    H212723   4.520   0.233   7.902
  634TIP3   OH212724   3.754   1.875   6.649
  634TIP3    H112725   3.697   1.819   6.593
  634TIP3    H212726   3.797   1.805   6.704
  635TIP3   OH212727   3.859   1.692   6.819
  635TIP3    H112728   3.795   1.647   6.875
  635TIP3    H212729   3.928   1.718   6.884
  636TIP3   OH212730   3.863   1.023   7.060
  636TIP3    H112731   3.847   0.970   6.978
  636TIP3    H212732   3.944   0.977   7.092
  637TIP3   OH212733   3.843   0.478   7.620
  637TIP3    H112734   3.934   0.488   7.652
  637TIP3    H212735   3.806   0.416   7.686
  638TIP3   OH212736   3.918   0.309   6.973
  638TIP3    H112737   3.977   0.235   6.992
  638TIP3    H212738   3.977   0.385   6.986
  639TIP3   OH212739   3.830   0.609   7.083
  639TIP3    H112740   3.877   0.608   6.997
  639TIP3    H212741   3.902   0.625   7.145
  640TIP3   OH212742   3.823   0.262   6.488
  640TIP3    H112743   3.743   0.308   6.458
  640TIP3    H212744   3.861   0.233   6.404
  641TIP3   OH212745   3.866   0.155   7.292
  641TIP3    H112746   3.819   0.132   7.374
  641TIP3    H212747   3.798   0.199   7.239
  642TIP3   OH212748   4.069   1.447   7.666
  642TIP3    H112749   3.982   1.434   7.625
  642TIP3    H212750   4.061   1.387   7.740
  643TIP3   OH212751   4.345   1.593   7.366
  643TIP3    H112752   4.336   1.682   7.325
  643TIP3    H212753   4.443   1.582   7.357
  644TIP3   OH212754   4.763   1.729   7.601
  644TIP3    H112755   4.753   1.675   7.682
  644TIP3    H212756   4.856   1.756   7.605
  645TIP3   OH212757   5.023   1.831   7.613
  645TIP3    H112758   5.084   1.756   7.605
  645TIP3    H212759   5.039   1.859   7.705
  646TIP3   OH212760   4.072   1.914   7.333
  646TIP3    H112761   4.000   1.970   7.298
  646TIP3    H212762   4.055   1.920   7.428
  647TIP3   OH212763   4.296   1.823   7.236
  647TIP3    H112764   4.205   1.839   7.270
  647TIP3    H212765   4.306   1.899   7.175
  648TIP3   OH212766   4.790   1.793   7.177
  648TIP3    H112767   4.742   1.849   7.115
  648TIP3    H212768   4.799   1.853   7.254
  649TIP3   OH212769   4.979   1.663   7.321
  649TIP3    H112770   4.934   1.706   7.245
  649TIP3    H212771   5.018   1.738   7.367
  650TIP3   OH212772   4.018   1.743   7.037
  650TIP3    H112773   4.007   1.703   7.126
  650TIP3    H212774   4.101   1.699   7.008
  651TIP3   OH212775   4.238   1.626   6.894
  651TIP3    H112776   4.220   1.534   6.925
  651TIP3    H212777   4.327   1.639   6.934
  652TIP3   OH212778   4.471   1.631   7.019
  652TIP3    H112779   4.495   1.537   7.012
  652TIP3    H212780   4.490   1.648   7.113
  653TIP3   OH212781   4.810   0.277   6.922
  653TIP3    H112782   4.737   0.214   6.904
  653TIP3    H212783   4.884   0.214   6.937
  654TIP3   OH212784   4.031   0.090   6.664
  654TIP3    H112785   3.975   0.113   6.588
  654TIP3    H212786   4.041  -0.006   6.651
  655TIP3   OH212787   3.945   0.098   6.283
  655TIP3    H112788   4.000   0.117   6.204
  655TIP3    H212789   3.856   0.116   6.249
  656TIP3   OH212790   4.514   0.159   6.659
  656TIP3    H112791   4.605   0.172   6.625
  656TIP3    H212792   4.538   0.139   6.752
  657TIP3   OH212793   4.995   0.080   6.891
  657TIP3    H112794   5.065   0.124   6.838
  657TIP3    H212795   4.984  -0.001   6.839
  658TIP3   OH212796   4.084   0.235   6.081
  658TIP3    H112797   4.131   0.193   6.007
  658TIP3    H212798   4.158   0.276   6.129
  659TIP3   OH212799   4.601   0.337   6.362
  659TIP3    H112800   4.608   0.255   6.412
  659TIP3    H212801   4.665   0.391   6.415
  660TIP3   OH212802   4.004   0.128   7.639
  660TIP3    H112803   3.984   0.045   7.595
  660TIP3    H212804   4.098   0.113   7.664
  661TIP3   OH212805   4.243   0.041   7.764
  661TIP3    H112806   4.330   0.081   7.784
  661TIP3    H212807   4.238  -0.032   7.827
  662TIP3   OH212808   5.117   0.038   7.825
  662TIP3    H112809   5.057  -0.019   7.876
  662TIP3    H212810   5.202  -0.008   7.827
  663TIP3   OH212811   1.247   2.884   6.668
  663TIP3    H112812   1.244   2.976   6.701
  663TIP3    H212813   1.182   2.892   6.596
  664TIP3   OH212814   1.123   2.747   7.001
  664TIP3    H112815   1.108   2.706   7.089
  664TIP3    H212816   1.040   2.725   6.956
  665TIP3   OH212817   0.329   2.794   7.177
  665TIP3    H112818   0.319   2.701   7.205
  665TIP3    H212819   0.407   2.824   7.226
  666TIP3   OH212820   1.414   3.098   6.901
  666TIP3    H112821   1.412   3.017   6.956
  666TIP3    H212822   1.438   3.168   6.965
  667TIP3   OH212823   0.376   3.219   6.981
  667TIP3    H112824   0.370   3.123   6.956
  667TIP3    H212825   0.466   3.212   7.018
  668TIP3   OH212826   0.054   2.491   6.637
  668TIP3    H112827   0.040   2.576   6.683
  668TIP3    H212828   0.025   2.520   6.548
  669TIP3   OH212829   0.171   2.754   6.699
  669TIP3    H112830   0.203   2.696   6.771
  669TIP3    H212831   0.206   2.839   6.727
  670TIP3   OH212832   1.176   3.643   6.862
  670TIP3    H112833   1.227   3.576   6.810
  670TIP3    H212834   1.140   3.586   6.931
  671TIP3   OH212835   0.907   3.021   7.113
  671TIP3    H112836   0.951   2.990   7.033
  671TIP3    H212837   0.985   3.059   7.159
  672TIP3   OH212838   1.781   2.175   7.095
  672TIP3    H112839   1.788   2.244   7.164
  672TIP3    H212840   1.859   2.199   7.043
  673TIP3   OH212841   1.279   2.500   7.127
  673TIP3    H112842   1.288   2.404   7.142
  673TIP3    H212843   1.270   2.499   7.029
  674TIP3   OH212844   0.595   2.275   6.788
  674TIP3    H112845   0.580   2.365   6.754
  674TIP3    H212846   0.524   2.226   6.743
  675TIP3   OH212847   1.265   2.288   6.717
  675TIP3    H112848   1.328   2.252   6.783
  675TIP3    H212849   1.329   2.330   6.658
  676TIP3   OH212850   0.293   2.578   6.863
  676TIP3    H112851   0.281   2.510   6.932
  676TIP3    H212852   0.316   2.522   6.786
  677TIP3   OH212853   0.689   2.714   6.810
  677TIP3    H112854   0.767   2.668   6.846
  677TIP3    H212855   0.654   2.642   6.753
  678TIP3   OH212856   1.797   2.319   7.363
  678TIP3    H112857   1.766   2.410   7.341
  678TIP3    H212858   1.837   2.332   7.451
  679TIP3   OH212859   0.488   2.191   7.217
  679TIP3    H112860   0.458   2.251   7.145
  679TIP3    H212861   0.408   2.189   7.273
  680TIP3   OH212862   1.145   3.141   6.575
  680TIP3    H112863   1.158   3.158   6.480
  680TIP3    H212864   1.093   3.219   6.602
  681TIP3   OH212865   0.673   2.951   7.239
  681TIP3    H112866   0.616   3.025   7.272
  681TIP3    H212867   0.747   3.000   7.196
  682TIP3   OH212868   1.473   2.223   6.875
  682TIP3    H112869   1.432   2.199   6.960
  682TIP3    H212870   1.567   2.227   6.894
  683TIP3   OH212871   0.421   2.387   7.028
  683TIP3    H112872   0.469   2.462   7.070
  683TIP3    H212873   0.485   2.361   6.959
  684TIP3   OH212874   0.535   3.176   7.305
  684TIP3    H112875   0.508   3.265   7.276
  684TIP3    H212876   0.456   3.159   7.360
  685TIP3   OH212877   0.128   3.061   6.456
  685TIP3    H112878   0.154   3.106   6.373
  685TIP3    H212879   0.157   3.127   6.520
  686TIP3   OH212880   1.493   3.316   7.087
  686TIP3    H112881   1.399   3.321   7.114
  686TIP3    H212882   1.493   3.389   7.024
  687TIP3   OH212883   1.513   2.166   7.234
  687TIP3    H112884   1.445   2.219   7.189
  687TIP3    H212885   1.587   2.174   7.171
  688TIP3   OH212886   0.811   1.936   6.971
  688TIP3    H112887   0.788   1.843   6.963
  688TIP3    H212888   0.721   1.975   6.987
  689TIP3   OH212889   1.347   3.478   6.714
  689TIP3    H112890   1.378   3.395   6.671
  689TIP3    H212891   1.431   3.530   6.712
  690TIP3   OH212892   1.456   3.260   6.611
  690TIP3    H112893   1.458   3.193   6.540
  690TIP3    H212894   1.433   3.203   6.686
  691TIP3   OH212895   1.615   3.132   7.454
  691TIP3    H112896   1.617   3.053   7.395
  691TIP3    H212897   1.635   3.202   7.389
  692TIP3   OH212898   1.079   2.838   6.410
  692TIP3    H112899   1.000   2.895   6.404
  692TIP3    H212900   1.076   2.793   6.322
  693TIP3   OH212901   1.835   2.761   7.235
  693TIP3    H112902   1.778   2.837   7.254
  693TIP3    H212903   1.889   2.798   7.162
  694TIP3   OH212904   1.462   2.817   6.510
  694TIP3    H112905   1.382   2.834   6.564
  694TIP3    H212906   1.511   2.755   6.567
  695TIP3   OH212907   1.441   2.667   7.416
  695TIP3    H112908   1.415   2.755   7.447
  695TIP3    H212909   1.382   2.661   7.339
  696TIP3   OH212910   0.520   2.863   6.678
  696TIP3    H112911   0.577   2.890   6.605
  696TIP3    H212912   0.585   2.814   6.732
  697TIP3   OH212913   0.721   3.226   6.991
  697TIP3    H112914   0.726   3.210   6.896
  697TIP3    H212915   0.783   3.161   7.028
  698TIP3   OH212916   0.620   2.739   7.072
  698TIP3    H112917   0.632   2.758   6.977
  698TIP3    H212918   0.661   2.817   7.115
  699TIP3   OH212919   1.232   3.332   7.137
  699TIP3    H112920   1.203   3.393   7.207
  699TIP3    H212921   1.219   3.244   7.178
  700TIP3   OH212922   0.669   3.181   7.537
  700TIP3    H112923   0.622   3.252   7.586
  700TIP3    H212924   0.620   3.176   7.452
  701TIP3   OH212925   0.396   2.873   7.468
  701TIP3    H112926   0.375   2.920   7.550
  701TIP3    H212927   0.311   2.830   7.445
  702TIP3   OH212928   1.015   3.415   6.577
  702TIP3    H112929   1.074   3.486   6.606
  702TIP3    H212930   0.930   3.462   6.575
  703TIP3   OH212931   0.553   3.405   7.649
  703TIP3    H112932   0.555   3.486   7.591
  703TIP3    H212933   0.458   3.388   7.661
  704TIP3   OH212934   0.097   3.044   7.375
  704TIP3    H112935   0.017   3.073   7.329
  704TIP3    H212936   0.140   2.992   7.305
  705TIP3   OH212937   0.108   3.322   6.957
  705TIP3    H112938   0.185   3.262   6.965
  705TIP3    H212939   0.089   3.344   7.050
  706TIP3   OH212940   1.884   3.362   7.585
  706TIP3    H112941   1.877   3.266   7.599
  706TIP3    H212942   1.798   3.382   7.627
  707TIP3   OH212943   0.992   3.306   7.518
  707TIP3    H112944   0.998   3.397   7.553
  707TIP3    H212945   0.903   3.305   7.479
  708TIP3   OH212946   1.024   3.716   6.444
  708TIP3    H112947   1.021   3.741   6.349
  708TIP3    H212948   1.014   3.805   6.484
  709TIP3   OH212949   0.390   3.567   6.657
  709TIP3    H112950   0.408   3.527   6.746
  709TIP3    H212951   0.307   3.523   6.628
  710TIP3   OH212952   1.283   3.636   6.481
  710TIP3    H112953   1.190   3.659   6.460
  710TIP3    H212954   1.279   3.541   6.499
  711TIP3   OH212955   1.525   2.525   7.642
  711TIP3    H112956   1.487   2.580   7.570
  711TIP3    H212957   1.510   2.436   7.607
  712TIP3   OH212958   0.302   3.207   7.456
  712TIP3    H112959   0.306   3.162   7.542
  712TIP3    H212960   0.222   3.168   7.417
  713TIP3   OH212961   0.567   2.038   7.016
  713TIP3    H112962   0.471   2.036   6.998
  713TIP3    H212963   0.567   2.080   7.105
  714TIP3   OH212964   1.048   1.993   7.370
  714TIP3    H112965   1.075   1.966   7.460
  714TIP3    H212966   0.952   1.972   7.371
  715TIP3   OH212967   1.356   2.375   7.449
  715TIP3    H112968   1.304   2.354   7.530
  715TIP3    H212969   1.314   2.458   7.421
  716TIP3   OH212970   1.465   2.904   6.127
  716TIP3    H112971   1.407   2.828   6.108
  716TIP3    H212972   1.515   2.871   6.205
  717TIP3   OH212973   0.617   2.499   7.176
  717TIP3    H112974   0.540   2.519   7.233
  717TIP3    H212975   0.626   2.588   7.133
  718TIP3   OH212976   0.581   2.517   6.654
  718TIP3    H112977   0.488   2.494   6.632
  718TIP3    H212978   0.626   2.514   6.567
  719TIP3   OH212979   1.138   2.601   6.552
  719TIP3    H112980   1.104   2.681   6.509
  719TIP3    H212981   1.213   2.580   6.494
  720TIP3   OH212982   0.986   2.623   7.727
  720TIP3    H112983   0.967   2.526   7.735
  720TIP3    H212984   1.074   2.624   7.772
  721TIP3   OH212985   1.253   2.529   6.863
  721TIP3    H112986   1.229   2.618   6.830
  721TIP3    H212987   1.235   2.474   6.784
  722TIP3   OH212988   0.343   2.522   7.266
  722TIP3    H112989   0.378   2.559   7.349
  722TIP3    H212990   0.309   2.435   7.296
  723TIP3   OH212991   0.091   2.186   6.741
  723TIP3    H112992   0.134   2.213   6.824
  723TIP3    H212993   0.163   2.185   6.677
  724TIP3   OH212994   0.164   2.378   6.245
  724TIP3    H112995   0.240   2.428   6.202
  724TIP3    H212996   0.131   2.332   6.166
  725TIP3   OH212997   1.172   2.701   7.281
  725TIP3    H112998   1.221   2.634   7.231
  725TIP3    H212999   1.109   2.645   7.332
  726TIP3   OH213000   0.874   2.240   6.795
  726TIP3    H113001   0.776   2.253   6.791
  726TIP3    H213002   0.892   2.266   6.887
  727TIP3   OH213003   0.324   2.454   6.629
  727TIP3    H113004   0.226   2.461   6.619
  727TIP3    H213005   0.337   2.357   6.615
  728TIP3   OH213006   0.698   2.495   6.396
  728TIP3    H113007   0.783   2.458   6.431
  728TIP3    H213008   0.706   2.467   6.303
  729TIP3   OH213009   1.282   2.196   7.080
  729TIP3    H113010   1.212   2.189   7.146
  729TIP3    H213011   1.252   2.127   7.017
  730TIP3   OH213012   1.579   3.766   7.733
  730TIP3    H113013   1.614   3.854   7.709
  730TIP3    H213014   1.644   3.739   7.799
  731TIP3   OH213015   0.293   3.085   7.700
  731TIP3    H113016   0.380   3.061   7.741
  731TIP3    H213017   0.228   3.041   7.758
  732TIP3   OH213018   0.908   2.558   6.913
  732TIP3    H113019   0.997   2.522   6.891
  732TIP3    H213020   0.880   2.497   6.983
  733TIP3   OH213021   0.400   2.197   6.623
  733TIP3    H113022   0.369   2.112   6.663
  733TIP3    H213023   0.459   2.163   6.553
  734TIP3   OH213024   0.850   2.365   7.168
  734TIP3    H113025   0.765   2.415   7.169
  734TIP3    H213026   0.901   2.412   7.235
  735TIP3   OH213027   0.855   2.989   6.406
  735TIP3    H113028   0.804   3.044   6.344
  735TIP3    H213029   0.820   3.025   6.491
  736TIP3   OH213030   1.647   2.963   7.250
  736TIP3    H113031   1.689   3.021   7.183
  736TIP3    H213032   1.564   2.943   7.203
  737TIP3   OH213033   0.999   3.038   7.488
  737TIP3    H113034   0.954   3.025   7.573
  737TIP3    H213035   1.005   3.135   7.490
  738TIP3   OH213036   0.477   2.974   6.931
  738TIP3    H113037   0.490   2.942   6.840
  738TIP3    H213038   0.456   2.894   6.982
  739TIP3   OH213039   1.095   3.172   6.305
  739TIP3    H113040   1.031   3.237   6.340
  739TIP3    H213041   1.046   3.089   6.320
  740TIP3   OH213042   0.148   2.749   7.448
  740TIP3    H113043   0.134   2.770   7.542
  740TIP3    H213044   0.057   2.724   7.422
  741TIP3   OH213045   0.751   2.757   7.637
  741TIP3    H113046   0.726   2.746   7.544
  741TIP3    H213047   0.832   2.702   7.642
  742TIP3   OH213048   1.295   3.288   7.497
  742TIP3    H113049   1.203   3.289   7.467
  742TIP3    H213050   1.277   3.322   7.588
  743TIP3   OH213051   1.849   3.074   7.579
  743TIP3    H113052   1.768   3.100   7.531
  743TIP3    H213053   1.914   3.072   7.507
  744TIP3   OH213054   1.664   3.384   6.394
  744TIP3    H113055   1.630   3.294   6.407
  744TIP3    H213056   1.692   3.386   6.302
  745TIP3   OH213057   1.384   2.865   7.061
  745TIP3    H113058   1.295   2.837   7.032
  745TIP3    H213059   1.438   2.797   7.017
  746TIP3   OH213060   0.630   3.307   6.664
  746TIP3    H113061   0.668   3.387   6.623
  746TIP3    H213062   0.543   3.339   6.692
  747TIP3   OH213063   0.754   3.071   6.643
  747TIP3    H113064   0.708   3.158   6.639
  747TIP3    H213065   0.735   3.038   6.731
  748TIP3   OH213066   0.809   3.484   7.301
  748TIP3    H113067   0.883   3.542   7.275
  748TIP3    H213068   0.788   3.516   7.391
  749TIP3   OH213069   0.656   3.560   6.575
  749TIP3    H113070   0.563   3.560   6.606
  749TIP3    H213071   0.680   3.652   6.596
  750TIP3   OH213072   1.145   3.074   7.228
  750TIP3    H113073   1.120   3.031   7.313
  750TIP3    H213074   1.205   3.007   7.191
  751TIP3   OH213075   1.383   3.190   6.201
  751TIP3    H113076   1.412   3.144   6.283
  751TIP3    H213077   1.289   3.198   6.227
  752TIP3   OH213078   1.489   3.496   7.480
  752TIP3    H113079   1.410   3.438   7.484
  752TIP3    H213080   1.461   3.567   7.417
  753TIP3   OH213081   1.829   3.627   6.217
  753TIP3    H113082   1.882   3.657   6.141
  753TIP3    H213083   1.761   3.697   6.224
  754TIP3   OH213084   0.272   2.291   7.390
  754TIP3    H113085   0.190   2.332   7.425
  754TIP3    H213086   0.282   2.218   7.455
  755TIP3   OH213087   1.480   3.070   6.421
  755TIP3    H113088   1.468   2.980   6.459
  755TIP3    H213089   1.578   3.069   6.413
  756TIP3   OH213090   0.213   3.436   7.242
  756TIP3    H113091   0.302   3.398   7.249
  756TIP3    H213092   0.217   3.500   7.317
  757TIP3   OH213093   0.766   3.226   6.268
  757TIP3    H113094   0.701   3.195   6.201
  757TIP3    H213095   0.732   3.315   6.286
  758TIP3   OH213096   1.128   2.251   7.372
  758TIP3    H113097   1.225   2.252   7.386
  758TIP3    H213098   1.104   2.156   7.380
  759TIP3   OH213099   1.182   2.159   6.477
  759TIP3    H113100   1.133   2.198   6.404
  759TIP3    H213101   1.266   2.208   6.474
  760TIP3   OH213102   0.900   2.407   6.560
  760TIP3    H113103   0.979   2.462   6.546
  760TIP3    H213104   0.924   2.352   6.637
  761TIP3   OH213105   1.047   2.517   7.435
  761TIP3    H113106   1.041   2.542   7.529
  761TIP3    H213107   1.059   2.420   7.439
  762TIP3   OH213108   1.002   2.036   6.639
  762TIP3    H113109   0.968   2.114   6.688
  762TIP3    H213110   1.066   2.083   6.581
  763TIP3   OH213111   0.753   3.519   6.321
  763TIP3    H113112   0.791   3.602   6.290
  763TIP3    H213113   0.710   3.545   6.406
  764TIP3   OH213114   1.578   2.250   7.521
  764TIP3    H113115   1.493   2.283   7.485
  764TIP3    H213116   1.639   2.274   7.448
  765TIP3   OH213117   1.498   2.648   6.925
  765TIP3    H113118   1.424   2.585   6.917
  765TIP3    H213119   1.563   2.597   6.979
  766TIP3   OH213120   1.582   3.613   7.081
  766TIP3    H113121   1.574   3.615   6.984
  766TIP3    H213122   1.666   3.566   7.094
  767TIP3   OH213123   0.308   1.997   6.977
  767TIP3    H113124   0.304   1.980   6.880
  767TIP3    H213125   0.278   1.909   7.009
  768TIP3   OH213126   0.223   3.325   6.524
  768TIP3    H113127   0.156   3.387   6.490
  768TIP3    H213128   0.286   3.325   6.451
  769TIP3   OH213129   0.130   3.716   7.764
  769TIP3    H113130   0.208   3.726   7.823
  769TIP3    H213131   0.153   3.629   7.727
  770TIP3   OH213132   0.637   3.521   7.880
  770TIP3    H113133   0.729   3.491   7.878
  770TIP3    H213134   0.600   3.475   7.803
  771TIP3   OH213135   1.219   3.385   7.735
  771TIP3    H113136   1.194   3.297   7.773
  771TIP3    H213137   1.302   3.405   7.785
  772TIP3   OH213138   0.044   2.999   7.843
  772TIP3    H113139   0.076   2.919   7.797
  772TIP3    H213140  -0.040   3.014   7.796
  773TIP3   OH213141   0.807   3.023   7.702
  773TIP3    H113142   0.767   3.078   7.630
  773TIP3    H213143   0.799   2.931   7.668
  774TIP3   OH213144   1.370   3.013   7.496
  774TIP3    H113145   1.458   3.055   7.504
  774TIP3    H213146   1.317   3.095   7.486
  775TIP3   OH213147   0.155   2.778   7.730
  775TIP3    H113148   0.248   2.750   7.722
  775TIP3    H213149   0.134   2.736   7.816
  776TIP3   OH213150   0.645   2.818   6.271
  776TIP3    H113151   0.739   2.807   6.292
  776TIP3    H213152   0.642   2.823   6.174
  777TIP3   OH213153   0.558   2.660   7.390
  777TIP3    H113154   0.533   2.753   7.412
  777TIP3    H213155   0.648   2.676   7.353
  778TIP3   OH213156   1.122   2.924   7.833
  778TIP3    H113157   1.178   2.863   7.781
  778TIP3    H213158   1.050   2.869   7.867
  779TIP3   OH213159   0.633   2.475   7.583
  779TIP3    H113160   0.671   2.396   7.541
  779TIP3    H213161   0.603   2.529   7.506
  780TIP3   OH213162   0.718   2.219   7.370
  780TIP3    H113163   0.770   2.248   7.292
  780TIP3    H213164   0.629   2.217   7.330
  781TIP3   OH213165   0.833   2.775   7.372
  781TIP3    H113166   0.923   2.807   7.390
  781TIP3    H213167   0.791   2.850   7.325
  782TIP3   OH213168   1.229   2.558   7.872
  782TIP3    H113169   1.252   2.465   7.865
  782TIP3    H213170   1.317   2.598   7.863
  783TIP3   OH213171   1.336   2.797   7.700
  783TIP3    H113172   1.327   2.862   7.627
  783TIP3    H213173   1.430   2.776   7.695
  784TIP3   OH213174   0.488   2.530   7.817
  784TIP3    H113175   0.444   2.446   7.795
  784TIP3    H213176   0.539   2.545   7.734
  785TIP3   OH213177   0.790   1.949   7.341
  785TIP3    H113178   0.757   2.041   7.352
  785TIP3    H213179   0.710   1.904   7.309
  786TIP3   OH213180   0.922   2.362   7.748
  786TIP3    H113181   0.859   2.356   7.822
  786TIP3    H213182   0.861   2.333   7.678
  787TIP3   OH213183   1.206   2.335   7.673
  787TIP3    H113184   1.112   2.331   7.702
  787TIP3    H213185   1.249   2.276   7.739
  788TIP3   OH213186   1.334   2.169   7.857
  788TIP3    H113187   1.311   2.075   7.846
  788TIP3    H213188   1.337   2.180   7.954
  789TIP3   OH213189   0.330   2.305   7.784
  789TIP3    H113190   0.322   2.237   7.715
  789TIP3    H213191   0.295   2.259   7.862
  790TIP3   OH213192   0.749   1.901   7.693
  790TIP3    H113193   0.798   1.819   7.670
  790TIP3    H213194   0.761   1.953   7.612
  791TIP3   OH213195   0.797   2.032   7.934
  791TIP3    H113196   0.789   1.963   7.866
  791TIP3    H213197   0.770   2.108   7.880
  792TIP3   OH213198   0.213   3.205   6.242
  792TIP3    H113199   0.298   3.214   6.195
  792TIP3    H213200   0.150   3.211   6.169
  793TIP3   OH213201   0.066   3.754   6.596
  793TIP3    H113202  -0.012   3.725   6.544
  793TIP3    H213203   0.058   3.696   6.674
  794TIP3   OH213204   0.123   3.550   6.827
  794TIP3    H113205   0.130   3.459   6.867
  794TIP3    H213206   0.182   3.601   6.886
  795TIP3   OH213207   1.861   3.677   7.144
  795TIP3    H113208   1.865   3.677   7.242
  795TIP3    H213209   1.941   3.626   7.121
  796TIP3   OH213210   1.802   3.583   7.403
  796TIP3    H113211   1.748   3.514   7.357
  796TIP3    H213212   1.848   3.525   7.468
  797TIP3   OH213213   1.676   3.165   7.863
  797TIP3    H113214   1.587   3.121   7.857
  797TIP3    H213215   1.664   3.229   7.934
  798TIP3   OH213216   1.747   3.043   6.406
  798TIP3    H113217   1.839   3.079   6.415
  798TIP3    H213218   1.760   2.958   6.450
  799TIP3   OH213219   1.839   2.800   6.615
  799TIP3    H113220   1.759   2.763   6.657
  799TIP3    H213221   1.895   2.822   6.692
  800TIP3   OH213222   1.777   3.088   7.062
  800TIP3    H113223   1.847   3.026   7.032
  800TIP3    H213224   1.806   3.174   7.026
  801TIP3   OH213225   1.656   3.362   7.297
  801TIP3    H113226   1.585   3.378   7.362
  801TIP3    H213227   1.604   3.342   7.215
  802TIP3   OH213228   1.611   2.643   6.668
  802TIP3    H113229   1.590   2.551   6.644
  802TIP3    H213230   1.580   2.649   6.762
  803TIP3   OH213231   0.168   2.934   7.025
  803TIP3    H113232   0.161   2.867   6.957
  803TIP3    H213233   0.235   2.894   7.086
  804TIP3   OH213234   1.681   2.838   7.589
  804TIP3    H113235   1.741   2.762   7.578
  804TIP3    H213236   1.742   2.915   7.585
  805TIP3   OH213237   1.799   2.565   7.654
  805TIP3    H113238   1.713   2.521   7.638
  805TIP3    H213239   1.860   2.487   7.661
  806TIP3   OH213240   1.495   2.357   6.505
  806TIP3    H113241   1.577   2.311   6.528
  806TIP3    H213242   1.518   2.394   6.418
  807TIP3   OH213243   1.679   2.497   7.063
  807TIP3    H113244   1.776   2.498   7.055
  807TIP3    H213245   1.676   2.518   7.159
  808TIP3   OH213246   1.678   2.559   7.328
  808TIP3    H113247   1.595   2.596   7.366
  808TIP3    H213248   1.730   2.641   7.311
  809TIP3   OH213249   0.059   2.398   7.790
  809TIP3    H113250   0.125   2.372   7.724
  809TIP3    H213251   0.003   2.318   7.793
  810TIP3   OH213252   1.964   2.008   7.905
  810TIP3    H113253   1.970   1.916   7.875
  810TIP3    H213254   1.907   2.048   7.835
  811TIP3   OH213255   1.691   2.150   6.495
  811TIP3    H113256   1.687   2.114   6.587
  811TIP3    H213257   1.609   2.114   6.457
  812TIP3   OH213258   0.187   2.237   7.004
  812TIP3    H113259   0.223   2.145   7.001
  812TIP3    H213260   0.261   2.290   7.036
  813TIP3   OH213261   0.053   2.546   7.084
  813TIP3    H113262   0.066   2.456   7.052
  813TIP3    H213263   0.139   2.575   7.117
  814TIP3   OH213264   1.794   2.111   7.717
  814TIP3    H113265   1.725   2.174   7.748
  814TIP3    H213266   1.765   2.095   7.625
  815TIP3   OH213267   0.109   2.195   6.446
  815TIP3    H113268   0.012   2.186   6.441
  815TIP3    H213269   0.123   2.277   6.395
  816TIP3   OH213270   1.564   3.641   6.744
  816TIP3    H113271   1.614   3.654   6.660
  816TIP3    H213272   1.501   3.716   6.740
  817TIP3   OH213273   0.054   2.006   7.311
  817TIP3    H113274   0.048   2.070   7.382
  817TIP3    H213275   0.025   2.056   7.232
  818TIP3   OH213276   0.253   3.385   7.765
  818TIP3    H113277   0.228   3.359   7.675
  818TIP3    H213278   0.238   3.302   7.812
  819TIP3   OH213279   0.503   3.440   7.260
  819TIP3    H113280   0.507   3.517   7.321
  819TIP3    H213281   0.598   3.417   7.258
  820TIP3   OH213282   0.952   3.597   7.607
  820TIP3    H113283   0.965   3.576   7.702
  820TIP3    H213284   1.042   3.633   7.588
  821TIP3   OH213285   1.191   3.715   7.596
  821TIP3    H113286   1.265   3.724   7.533
  821TIP3    H213287   1.233   3.749   7.679
  822TIP3   OH213288   1.695   1.992   7.487
  822TIP3    H113289   1.624   2.059   7.480
  822TIP3    H213290   1.647   1.909   7.497
  823TIP3   OH213291   0.249   3.663   7.405
  823TIP3    H113292   0.168   3.712   7.381
  823TIP3    H213293   0.310   3.737   7.421
  824TIP3   OH213294   0.513   3.796   7.198
  824TIP3    H113295   0.544   3.761   7.285
  824TIP3    H213296   0.476   3.715   7.160
  825TIP3   OH213297   1.032   3.708   7.169
  825TIP3    H113298   0.948   3.737   7.130
  825TIP3    H213299   1.039   3.772   7.243
  826TIP3   OH213300   1.225   3.557   7.293
  826TIP3    H113301   1.167   3.609   7.233
  826TIP3    H213302   1.303   3.614   7.298
  827TIP3   OH213303   1.459   3.697   7.300
  827TIP3    H113304   1.455   3.790   7.273
  827TIP3    H213305   1.497   3.655   7.219
  828TIP3   OH213306   0.284   3.621   7.042
  828TIP3    H113307   0.223   3.597   7.115
  828TIP3    H213308   0.332   3.536   7.031
  829TIP3   OH213309   0.477   3.456   6.890
  829TIP3    H113310   0.452   3.369   6.927
  829TIP3    H213311   0.549   3.486   6.951
  830TIP3   OH213312   0.698   3.513   7.040
  830TIP3    H113313   0.736   3.424   7.028
  830TIP3    H213314   0.725   3.531   7.131
  831TIP3   OH213315   1.095   2.035   6.964
  831TIP3    H113316   1.004   2.043   6.996
  831TIP3    H213317   1.079   2.038   6.868
  832TIP3   OH213318   1.558   1.922   6.936
  832TIP3    H113319   1.616   1.978   6.880
  832TIP3    H213320   1.471   1.939   6.896
  833TIP3   OH213321   1.745   2.028   6.739
  833TIP3    H113322   1.808   1.968   6.693
  833TIP3    H213323   1.808   2.094   6.776
  834TIP3   OH213324   0.322   1.959   6.704
  834TIP3    H113325   0.248   1.957   6.638
  834TIP3    H213326   0.360   1.869   6.689
  835TIP3   OH213327   0.207   1.970   6.350
  835TIP3    H113328   0.256   2.015   6.277
  835TIP3    H213329   0.156   2.047   6.385
  836TIP3   OH213330   0.728   1.970   6.684
  836TIP3    H113331   0.811   1.989   6.634
  836TIP3    H213332   0.759   1.984   6.776
  837TIP3   OH213333   1.315   1.936   6.802
  837TIP3    H113334   1.267   1.965   6.723
  837TIP3    H213335   1.245   1.883   6.848
  838TIP3   OH213336   1.459   1.931   6.465
  838TIP3    H113337   1.413   1.994   6.408
  838TIP3    H213338   1.392   1.859   6.468
  839TIP3   OH213339   0.158   3.563   6.385
  839TIP3    H113340   0.089   3.517   6.331
  839TIP3    H213341   0.110   3.640   6.417
  840TIP3   OH213342   0.352   2.096   6.147
  840TIP3    H113343   0.268   2.082   6.095
  840TIP3    H213344   0.373   2.185   6.117
  841TIP3   OH213345   1.680   3.632   6.489
  841TIP3    H113346   1.672   3.537   6.462
  841TIP3    H213347   1.657   3.672   6.404
  842TIP3   OH213348   0.266   2.031   7.601
  842TIP3    H113349   0.218   1.958   7.645
  842TIP3    H213350   0.349   2.020   7.653
  843TIP3   OH213351   0.460   1.979   7.777
  843TIP3    H113352   0.554   1.993   7.757
  843TIP3    H213353   0.464   1.893   7.823
  844TIP3   OH213354   0.394   3.681   6.151
  844TIP3    H113355   0.352   3.652   6.232
  844TIP3    H213356   0.445   3.604   6.122
  845TIP3   OH213357   1.275   1.874   7.855
  845TIP3    H113358   1.244   1.833   7.937
  845TIP3    H213359   1.360   1.828   7.842
  846TIP3   OH213360   1.673   3.486   7.677
  846TIP3    H113361   1.607   3.495   7.605
  846TIP3    H213362   1.719   3.570   7.671
  847TIP3   OH213363   3.142   2.890   6.703
  847TIP3    H113364   3.149   2.951   6.779
  847TIP3    H213365   3.095   2.946   6.639
  848TIP3   OH213366   2.978   2.811   6.997
  848TIP3    H113367   2.983   2.761   7.081
  848TIP3    H213368   2.921   2.753   6.943
  849TIP3   OH213369   2.208   2.779   7.149
  849TIP3    H113370   2.198   2.696   7.199
  849TIP3    H213371   2.283   2.821   7.194
  850TIP3   OH213372   3.295   3.097   6.882
  850TIP3    H113373   3.290   3.019   6.940
  850TIP3    H213374   3.367   3.147   6.924
  851TIP3   OH213375   2.314   3.281   6.986
  851TIP3    H113376   2.274   3.193   6.989
  851TIP3    H213377   2.408   3.254   6.985
  852TIP3   OH213378   1.991   2.542   6.537
  852TIP3    H113379   1.928   2.611   6.565
  852TIP3    H213380   1.994   2.564   6.440
  853TIP3   OH213381   2.023   2.807   6.808
  853TIP3    H113382   2.053   2.714   6.826
  853TIP3    H213383   2.084   2.835   6.738
  854TIP3   OH213384   3.041   3.630   6.852
  854TIP3    H113385   3.115   3.568   6.833
  854TIP3    H213386   3.011   3.599   6.939
  855TIP3   OH213387   2.784   3.054   7.123
  855TIP3    H113388   2.810   3.038   7.032
  855TIP3    H213389   2.872   3.081   7.160
  856TIP3   OH213390   3.660   2.227   7.126
  856TIP3    H113391   3.671   2.284   7.204
  856TIP3    H213392   3.746   2.243   7.083
  857TIP3   OH213393   3.175   2.522   7.140
  857TIP3    H113394   3.185   2.432   7.178
  857TIP3    H213395   3.169   2.497   7.046
  858TIP3   OH213396   2.447   2.268   6.817
  858TIP3    H113397   2.453   2.344   6.756
  858TIP3    H213398   2.406   2.204   6.756
  859TIP3   OH213399   3.193   2.292   6.691
  859TIP3    H113400   3.253   2.267   6.764
  859TIP3    H213401   3.250   2.352   6.640
  860TIP3   OH213402   2.090   2.556   6.890
  860TIP3    H113403   2.151   2.504   6.947
  860TIP3    H213404   2.111   2.517   6.803
  861TIP3   OH213405   2.554   2.671   6.803
  861TIP3    H113406   2.641   2.639   6.835
  861TIP3    H213407   2.523   2.594   6.750
  862TIP3   OH213408   3.690   2.339   7.378
  862TIP3    H113409   3.619   2.405   7.359
  862TIP3    H213410   3.733   2.379   7.455
  863TIP3   OH213411   2.365   2.205   7.229
  863TIP3    H113412   2.326   2.253   7.153
  863TIP3    H213413   2.294   2.221   7.294
  864TIP3   OH213414   3.050   3.147   6.594
  864TIP3    H113415   3.027   3.164   6.500
  864TIP3    H213416   3.048   3.237   6.633
  865TIP3   OH213417   2.554   2.959   7.215
  865TIP3    H113418   2.495   3.030   7.250
  865TIP3    H213419   2.630   3.011   7.179
  866TIP3   OH213420   3.389   2.267   6.920
  866TIP3    H113421   3.461   2.203   6.906
  866TIP3    H213422   3.441   2.340   6.959
  867TIP3   OH213423   2.293   2.386   7.032
  867TIP3    H113424   2.358   2.446   7.077
  867TIP3    H213425   2.344   2.359   6.952
  868TIP3   OH213426   2.434   3.197   7.295
  868TIP3    H113427   2.418   3.287   7.264
  868TIP3    H213428   2.348   3.180   7.342
  869TIP3   OH213429   2.004   3.115   6.435
  869TIP3    H113430   2.025   3.145   6.346
  869TIP3    H213431   2.040   3.189   6.487
  870TIP3   OH213432   3.407   3.275   7.076
  870TIP3    H113433   3.310   3.290   7.081
  870TIP3    H213434   3.430   3.363   7.042
  871TIP3   OH213435   3.381   2.164   7.226
  871TIP3    H113436   3.303   2.207   7.184
  871TIP3    H213437   3.453   2.190   7.166
  872TIP3   OH213438   2.678   1.924   6.997
  872TIP3    H113439   2.646   1.833   7.008
  872TIP3    H213440   2.592   1.972   7.010
  873TIP3   OH213441   3.276   3.464   6.764
  873TIP3    H113442   3.269   3.404   6.689
  873TIP3    H213443   3.321   3.541   6.722
  874TIP3   OH213444   3.345   3.241   6.574
  874TIP3    H113445   3.326   3.174   6.506
  874TIP3    H213446   3.328   3.192   6.656
  875TIP3   OH213447   3.472   3.156   7.490
  875TIP3    H113448   3.515   3.161   7.400
  875TIP3    H213449   3.415   3.235   7.485
  876TIP3   OH213450   3.629   2.716   7.224
  876TIP3    H113451   3.623   2.814   7.222
  876TIP3    H213452   3.723   2.709   7.200
  877TIP3   OH213453   3.325   2.774   6.509
  877TIP3    H113454   3.280   2.833   6.572
  877TIP3    H213455   3.397   2.737   6.565
  878TIP3   OH213456   3.259   2.599   7.425
  878TIP3    H113457   3.252   2.644   7.512
  878TIP3    H213458   3.233   2.672   7.366
  879TIP3   OH213459   2.443   2.898   6.717
  879TIP3    H113460   2.382   2.869   6.646
  879TIP3    H213461   2.495   2.816   6.736
  880TIP3   OH213462   2.599   3.228   6.985
  880TIP3    H113463   2.603   3.206   6.891
  880TIP3    H213464   2.649   3.156   7.029
  881TIP3   OH213465   2.484   2.752   7.064
  881TIP3    H113466   2.503   2.761   6.969
  881TIP3    H213467   2.528   2.829   7.107
  882TIP3   OH213468   3.162   3.360   7.142
  882TIP3    H113469   3.128   3.424   7.206
  882TIP3    H213470   3.116   3.278   7.170
  883TIP3   OH213471   2.593   3.191   7.516
  883TIP3    H113472   2.537   3.255   7.567
  883TIP3    H213473   2.541   3.185   7.432
  884TIP3   OH213474   2.289   2.842   7.469
  884TIP3    H113475   2.288   2.894   7.552
  884TIP3    H213476   2.195   2.812   7.464
  885TIP3   OH213477   2.997   3.396   6.679
  885TIP3    H113478   2.998   3.479   6.730
  885TIP3    H213479   2.925   3.414   6.619
  886TIP3   OH213480   2.466   3.391   7.644
  886TIP3    H113481   2.449   3.447   7.565
  886TIP3    H213482   2.373   3.371   7.670
  887TIP3   OH213483   2.280   2.796   6.503
  887TIP3    H113484   2.244   2.875   6.461
  887TIP3    H213485   2.250   2.730   6.439
  888TIP3   OH213486   1.991   3.059   7.350
  888TIP3    H113487   1.933   3.046   7.273
  888TIP3    H213488   2.030   2.969   7.355
  889TIP3   OH213489   1.928   3.333   7.107
  889TIP3    H113490   1.935   3.242   7.139
  889TIP3    H213491   1.994   3.376   7.165
  890TIP3   OH213492   3.769   3.371   7.639
  890TIP3    H113493   3.757   3.277   7.619
  890TIP3    H213494   3.678   3.396   7.663
  891TIP3   OH213495   2.851   3.308   7.523
  891TIP3    H113496   2.859   3.391   7.574
  891TIP3    H213497   2.755   3.295   7.513
  892TIP3   OH213498   2.891   3.706   6.419
  892TIP3    H113499   2.899   3.719   6.323
  892TIP3    H213500   2.911   3.794   6.455
  893TIP3   OH213501   2.247   3.569   6.676
  893TIP3    H113502   2.280   3.537   6.764
  893TIP3    H213503   2.154   3.539   6.673
  894TIP3   OH213504   3.215   3.578   6.187
  894TIP3    H113505   3.212   3.518   6.111
  894TIP3    H213506   3.189   3.520   6.260
  895TIP3   OH213507   3.138   3.589   6.493
  895TIP3    H113508   3.048   3.623   6.480
  895TIP3    H213509   3.125   3.501   6.529
  896TIP3   OH213510   3.422   2.451   7.680
  896TIP3    H113511   3.370   2.425   7.602
  896TIP3    H213512   3.440   2.363   7.719
  897TIP3   OH213513   2.221   3.168   7.455
  897TIP3    H113514   2.232   3.116   7.537
  897TIP3    H213515   2.132   3.140   7.424
  898TIP3   OH213516   2.449   2.027   7.055
  898TIP3    H113517   2.358   2.020   7.021
  898TIP3    H213518   2.437   2.096   7.124
  899TIP3   OH213519   2.949   1.994   7.384
  899TIP3    H113520   2.980   1.948   7.465
  899TIP3    H213521   2.851   1.984   7.389
  900TIP3   OH213522   3.231   2.350   7.504
  900TIP3    H113523   3.174   2.346   7.585
  900TIP3    H213524   3.227   2.445   7.479
  901TIP3   OH213525   2.489   2.509   7.168
  901TIP3    H113526   2.449   2.537   7.254
  901TIP3    H213527   2.480   2.595   7.121
  902TIP3   OH213528   2.457   2.481   6.640
  902TIP3    H113529   2.360   2.488   6.658
  902TIP3    H213530   2.457   2.430   6.557
  903TIP3   OH213531   3.053   2.572   6.538
  903TIP3    H113532   3.057   2.660   6.497
  903TIP3    H213533   3.105   2.518   6.476
  904TIP3   OH213534   2.890   2.646   7.711
  904TIP3    H113535   2.868   2.550   7.709
  904TIP3    H213536   2.980   2.640   7.749
  905TIP3   OH213537   3.130   2.546   6.841
  905TIP3    H113538   3.124   2.619   6.775
  905TIP3    H213539   3.115   2.467   6.786
  906TIP3   OH213540   2.199   2.520   7.299
  906TIP3    H113541   2.245   2.548   7.380
  906TIP3    H213542   2.189   2.424   7.311
  907TIP3   OH213543   1.914   2.240   6.781
  907TIP3    H113544   1.984   2.246   6.849
  907TIP3    H213545   1.945   2.292   6.705
  908TIP3   OH213546   3.043   2.713   7.269
  908TIP3    H113547   3.098   2.643   7.224
  908TIP3    H213548   2.979   2.658   7.320
  909TIP3   OH213549   2.761   2.294   6.793
  909TIP3    H113550   2.667   2.293   6.816
  909TIP3    H213551   2.797   2.220   6.844
  910TIP3   OH213552   2.185   2.419   6.666
  910TIP3    H113553   2.123   2.462   6.602
  910TIP3    H213554   2.172   2.326   6.640
  911TIP3   OH213555   2.619   2.412   6.406
  911TIP3    H113556   2.702   2.403   6.460
  911TIP3    H213557   2.588   2.497   6.438
  912TIP3   OH213558   3.154   2.252   7.125
  912TIP3    H113559   3.086   2.229   7.191
  912TIP3    H213560   3.149   2.176   7.065
  913TIP3   OH213561   3.462   3.767   7.741
  913TIP3    H113562   3.487   3.821   7.664
  913TIP3    H213563   3.544   3.773   7.794
  914TIP3   OH213564   2.228   3.022   7.684
  914TIP3    H113565   2.307   3.041   7.739
  914TIP3    H213566   2.164   2.996   7.751
  915TIP3   OH213567   2.808   2.611   6.911
  915TIP3    H113568   2.879   2.553   6.880
  915TIP3    H213569   2.794   2.574   6.999
  916TIP3   OH213570   2.309   2.165   6.591
  916TIP3    H113571   2.255   2.102   6.643
  916TIP3    H213572   2.325   2.109   6.513
  917TIP3   OH213573   2.735   2.386   7.188
  917TIP3    H113574   2.651   2.432   7.168
  917TIP3    H213575   2.780   2.450   7.246
  918TIP3   OH213576   2.686   3.012   6.338
  918TIP3    H113577   2.595   2.982   6.334
  918TIP3    H213578   2.691   3.056   6.426
  919TIP3   OH213579   3.343   2.898   7.276
  919TIP3    H113580   3.414   2.958   7.244
  919TIP3    H213581   3.301   2.876   7.189
  920TIP3   OH213582   2.921   3.037   7.488
  920TIP3    H113583   2.881   3.017   7.574
  920TIP3    H213584   2.892   3.130   7.482
  921TIP3   OH213585   3.237   2.462   6.342
  921TIP3    H113586   3.308   2.488   6.403
  921TIP3    H213587   3.257   2.518   6.264
  922TIP3   OH213588   2.311   2.978   6.938
  922TIP3    H113589   2.355   2.953   6.853
  922TIP3    H213590   2.310   2.893   6.986
  923TIP3   OH213591   2.963   3.152   6.341
  923TIP3    H113592   2.904   3.227   6.326
  923TIP3    H213593   2.926   3.079   6.291
  924TIP3   OH213594   2.030   2.779   7.445
  924TIP3    H113595   2.014   2.764   7.541
  924TIP3    H213596   1.955   2.732   7.404
  925TIP3   OH213597   2.635   2.762   7.645
  925TIP3    H113598   2.608   2.753   7.551
  925TIP3    H213599   2.720   2.712   7.644
  926TIP3   OH213600   3.185   3.292   7.500
  926TIP3    H113601   3.114   3.334   7.449
  926TIP3    H213602   3.159   3.323   7.589
  927TIP3   OH213603   3.739   3.100   7.584
  927TIP3    H113604   3.655   3.111   7.535
  927TIP3    H213605   3.796   3.067   7.511
  928TIP3   OH213606   3.537   3.321   6.384
  928TIP3    H113607   3.490   3.294   6.466
  928TIP3    H213608   3.504   3.253   6.324
  929TIP3   OH213609   3.271   2.834   7.027
  929TIP3    H113610   3.179   2.815   6.999
  929TIP3    H213611   3.322   2.764   6.978
  930TIP3   OH213612   2.504   3.319   6.695
  930TIP3    H113613   2.522   3.411   6.667
  930TIP3    H213614   2.414   3.310   6.660
  931TIP3   OH213615   2.632   3.103   6.601
  931TIP3    H113616   2.587   3.184   6.634
  931TIP3    H213617   2.608   3.035   6.666
  932TIP3   OH213618   2.708   3.517   7.334
  932TIP3    H113619   2.771   3.573   7.286
  932TIP3    H213620   2.766   3.481   7.404
  933TIP3   OH213621   2.501   3.574   6.574
  933TIP3    H113622   2.404   3.578   6.592
  933TIP3    H213623   2.529   3.655   6.621
  934TIP3   OH213624   3.026   3.095   7.232
  934TIP3    H113625   2.993   3.055   7.315
  934TIP3    H213626   3.081   3.022   7.197
  935TIP3   OH213627   3.363   3.556   7.478
  935TIP3    H113628   3.276   3.525   7.450
  935TIP3    H213629   3.384   3.628   7.413
  936TIP3   OH213630   2.166   2.257   7.400
  936TIP3    H113631   2.081   2.301   7.414
  936TIP3    H213632   2.167   2.192   7.473
  937TIP3   OH213633   3.390   3.041   6.354
  937TIP3    H113634   3.362   2.951   6.331
  937TIP3    H213635   3.486   3.029   6.373
  938TIP3   OH213636   2.116   3.439   7.272
  938TIP3    H113637   2.186   3.372   7.282
  938TIP3    H213638   2.137   3.495   7.349
  939TIP3   OH213639   2.731   3.288   6.028
  939TIP3    H113640   2.692   3.237   5.956
  939TIP3    H213641   2.656   3.294   6.091
  940TIP3   OH213642   2.565   3.265   6.261
  940TIP3    H113643   2.635   3.208   6.297
  940TIP3    H213644   2.587   3.351   6.302
  941TIP3   OH213645   2.998   2.265   7.368
  941TIP3    H113646   3.084   2.273   7.417
  941TIP3    H213647   2.977   2.169   7.378
  942TIP3   OH213648   2.826   3.429   6.338
  942TIP3    H113649   2.785   3.516   6.352
  942TIP3    H213650   2.867   3.443   6.250
  943TIP3   OH213651   2.837   2.404   6.551
  943TIP3    H113652   2.907   2.471   6.562
  943TIP3    H213653   2.824   2.368   6.643
  944TIP3   OH213654   2.899   2.516   7.394
  944TIP3    H113655   2.848   2.495   7.473
  944TIP3    H213656   2.948   2.432   7.378
  945TIP3   OH213657   2.906   2.105   6.599
  945TIP3    H113658   2.866   2.100   6.689
  945TIP3    H213659   2.955   2.188   6.607
  946TIP3   OH213660   2.565   3.597   6.314
  946TIP3    H113661   2.535   3.689   6.312
  946TIP3    H213662   2.552   3.573   6.409
  947TIP3   OH213663   3.479   2.217   7.515
  947TIP3    H113664   3.393   2.257   7.486
  947TIP3    H213665   3.540   2.261   7.452
  948TIP3   OH213666   3.386   2.628   6.897
  948TIP3    H113667   3.303   2.577   6.898
  948TIP3    H213668   3.445   2.577   6.956
  949TIP3   OH213669   2.275   3.279   6.153
  949TIP3    H113670   2.345   3.284   6.220
  949TIP3    H213671   2.312   3.209   6.096
  950TIP3   OH213672   3.447   3.556   7.074
  950TIP3    H113673   3.433   3.626   7.007
  950TIP3    H213674   3.545   3.555   7.080
  951TIP3   OH213675   2.189   1.992   7.013
  951TIP3    H113676   2.189   1.963   6.919
  951TIP3    H213677   2.171   1.905   7.056
  952TIP3   OH213678   2.067   3.352   6.560
  952TIP3    H113679   1.989   3.405   6.582
  952TIP3    H213680   2.105   3.409   6.490
  953TIP3   OH213681   2.015   3.633   7.722
  953TIP3    H113682   2.092   3.617   7.782
  953TIP3    H213683   1.994   3.544   7.689
  954TIP3   OH213684   2.512   3.492   7.901
  954TIP3    H113685   2.603   3.460   7.904
  954TIP3    H213686   2.482   3.451   7.817
  955TIP3   OH213687   2.929   3.472   6.087
  955TIP3    H113688   2.878   3.395   6.053
  955TIP3    H213689   2.976   3.504   6.009
  956TIP3   OH213690   3.123   3.390   7.745
  956TIP3    H113691   3.100   3.308   7.794
  956TIP3    H213692   3.209   3.410   7.790
  957TIP3   OH213693   2.052   3.051   7.920
  957TIP3    H113694   2.074   2.960   7.951
  957TIP3    H213695   1.976   3.030   7.862
  958TIP3   OH213696   2.374   3.048   6.038
  958TIP3    H113697   2.379   2.955   6.063
  958TIP3    H213698   2.445   3.059   5.973
  959TIP3   OH213699   2.705   3.012   7.691
  959TIP3    H113700   2.667   3.071   7.620
  959TIP3    H213701   2.693   2.922   7.653
  960TIP3   OH213702   3.221   3.003   7.529
  960TIP3    H113703   3.254   3.095   7.526
  960TIP3    H213704   3.130   3.018   7.497
  961TIP3   OH213705   2.057   2.762   7.705
  961TIP3    H113706   2.147   2.732   7.723
  961TIP3    H213707   2.014   2.727   7.784
  962TIP3   OH213708   2.438   2.641   7.390
  962TIP3    H113709   2.382   2.721   7.411
  962TIP3    H213710   2.525   2.685   7.381
  963TIP3   OH213711   3.046   2.924   7.807
  963TIP3    H113712   3.102   2.867   7.752
  963TIP3    H213713   2.963   2.874   7.808
  964TIP3   OH213714   2.542   2.450   7.556
  964TIP3    H113715   2.569   2.373   7.503
  964TIP3    H213716   2.494   2.507   7.492
  965TIP3   OH213717   2.610   2.230   7.370
  965TIP3    H113718   2.668   2.266   7.297
  965TIP3    H213719   2.522   2.234   7.327
  966TIP3   OH213720   2.684   2.784   7.375
  966TIP3    H113721   2.774   2.819   7.385
  966TIP3    H213722   2.642   2.852   7.317
  967TIP3   OH213723   3.149   2.589   7.850
  967TIP3    H113724   3.153   2.497   7.819
  967TIP3    H213725   3.241   2.616   7.833
  968TIP3   OH213726   3.249   2.763   7.644
  968TIP3    H113727   3.241   2.845   7.591
  968TIP3    H213728   3.322   2.787   7.704
  969TIP3   OH213729   2.382   2.509   7.823
  969TIP3    H113730   2.311   2.443   7.810
  969TIP3    H213731   2.415   2.522   7.732
  970TIP3   OH213732   2.687   1.970   7.345
  970TIP3    H113733   2.661   2.063   7.364
  970TIP3    H213734   2.601   1.931   7.323
  971TIP3   OH213735   2.807   2.378   7.757
  971TIP3    H113736   2.761   2.366   7.842
  971TIP3    H213737   2.740   2.334   7.701
  972TIP3   OH213738   3.077   2.333   7.716
  972TIP3    H113739   2.981   2.331   7.734
  972TIP3    H213740   3.109   2.264   7.778
  973TIP3   OH213741   3.195   2.136   7.878
  973TIP3    H113742   3.197   2.039   7.859
  973TIP3    H213743   3.202   2.135   7.976
  974TIP3   OH213744   2.207   2.294   7.763
  974TIP3    H113745   2.237   2.231   7.695
  974TIP3    H213746   2.183   2.232   7.835
  975TIP3   OH213747   2.650   1.903   7.695
  975TIP3    H113748   2.703   1.821   7.698
  975TIP3    H213749   2.658   1.925   7.601
  976TIP3   OH213750   2.660   2.020   7.933
  976TIP3    H113751   2.670   1.973   7.848
  976TIP3    H213752   2.618   2.101   7.902
  977TIP3   OH213753   1.998   3.178   6.110
  977TIP3    H113754   2.056   3.257   6.115
  977TIP3    H213755   2.061   3.109   6.133
  978TIP3   OH213756   1.912   3.718   6.619
  978TIP3    H113757   1.831   3.681   6.576
  978TIP3    H213758   1.921   3.662   6.699
  979TIP3   OH213759   1.974   3.565   6.831
  979TIP3    H113760   1.937   3.480   6.857
  979TIP3    H213761   2.024   3.588   6.912
  980TIP3   OH213762   3.717   3.621   7.093
  980TIP3    H113763   3.778   3.632   7.167
  980TIP3    H213764   3.776   3.623   7.016
  981TIP3   OH213765   3.699   3.583   7.385
  981TIP3    H113766   3.655   3.516   7.327
  981TIP3    H213767   3.720   3.525   7.460
  982TIP3   OH213768   3.530   3.203   7.934
  982TIP3    H113769   3.448   3.190   7.986
  982TIP3    H213770   3.585   3.255   7.995
  983TIP3   OH213771   3.654   2.999   6.412
  983TIP3    H113772   3.743   3.034   6.430
  983TIP3    H213773   3.653   2.921   6.472
  984TIP3   OH213774   3.709   2.772   6.546
  984TIP3    H113775   3.642   2.735   6.606
  984TIP3    H213776   3.783   2.786   6.610
  985TIP3   OH213777   3.711   3.122   6.996
  985TIP3    H113778   3.679   3.088   7.082
  985TIP3    H213779   3.690   3.215   7.010
  986TIP3   OH213780   3.530   3.379   7.303
  986TIP3    H113781   3.458   3.443   7.307
  986TIP3    H213782   3.500   3.322   7.228
  987TIP3   OH213783   3.508   2.650   6.665
  987TIP3    H113784   3.469   2.564   6.644
  987TIP3    H213785   3.483   2.654   6.761
  988TIP3   OH213786   1.983   2.894   7.059
  988TIP3    H113787   1.990   2.863   6.965
  988TIP3    H213788   2.075   2.872   7.087
  989TIP3   OH213789   3.633   2.795   7.554
  989TIP3    H113790   3.653   2.706   7.589
  989TIP3    H213791   3.691   2.849   7.613
  990TIP3   OH213792   3.670   2.549   7.632
  990TIP3    H113793   3.583   2.503   7.636
  990TIP3    H213794   3.734   2.477   7.651
  991TIP3   OH213795   3.438   2.386   6.566
  991TIP3    H113796   3.442   2.289   6.555
  991TIP3    H213797   3.523   2.408   6.528
  992TIP3   OH213798   3.549   2.474   7.043
  992TIP3    H113799   3.646   2.492   7.054
  992TIP3    H213800   3.522   2.481   7.136
  993TIP3   OH213801   3.492   2.508   7.318
  993TIP3    H113802   3.404   2.543   7.344
  993TIP3    H213803   3.534   2.589   7.282
  994TIP3   OH213804   1.954   2.341   7.645
  994TIP3    H113805   2.049   2.342   7.669
  994TIP3    H213806   1.926   2.261   7.694
  995TIP3   OH213807   3.777   1.997   7.910
  995TIP3    H113808   3.791   1.925   7.847
  995TIP3    H213809   3.763   2.074   7.850
  996TIP3   OH213810   3.470   2.105   6.520
  996TIP3    H113811   3.527   2.107   6.600
  996TIP3    H213812   3.422   2.023   6.538
  997TIP3   OH213813   2.067   2.230   7.013
  997TIP3    H113814   2.107   2.141   7.004
  997TIP3    H213815   2.145   2.287   7.029
  998TIP3   OH213816   1.936   2.512   7.114
  998TIP3    H113817   1.971   2.473   7.032
  998TIP3    H213818   1.991   2.592   7.121
  999TIP3   OH213819   3.693   2.166   7.722
  999TIP3    H113820   3.601   2.190   7.746
  999TIP3    H213821   3.675   2.123   7.637
 1000TIP3   OH213822   3.763   2.106   6.181
 1000TIP3    H113823   3.793   2.061   6.101
 1000TIP3    H213824   3.777   2.198   6.154
 1001TIP3   OH213825   1.958   2.185   6.496
 1001TIP3    H113826   1.861   2.191   6.509
 1001TIP3    H213827   1.960   2.168   6.401
 1002TIP3   OH213828   3.420   3.673   6.695
 1002TIP3    H113829   3.492   3.633   6.642
 1002TIP3    H213830   3.463   3.711   6.773
 1003TIP3   OH213831   1.907   2.004   7.316
 1003TIP3    H113832   1.832   1.994   7.378
 1003TIP3    H213833   1.873   2.074   7.259
 1004TIP3   OH213834   2.215   3.348   7.768
 1004TIP3    H113835   2.122   3.365   7.745
 1004TIP3    H213836   2.212   3.253   7.791
 1005TIP3   OH213837   2.447   3.482   7.374
 1005TIP3    H113838   2.435   3.573   7.341
 1005TIP3    H213839   2.544   3.471   7.359
 1006TIP3   OH213840   2.852   3.580   7.596
 1006TIP3    H113841   2.861   3.567   7.693
 1006TIP3    H213842   2.940   3.622   7.579
 1007TIP3   OH213843   3.069   3.731   7.595
 1007TIP3    H113844   3.149   3.724   7.540
 1007TIP3    H213845   3.106   3.759   7.682
 1008TIP3   OH213846   3.624   1.946   7.505
 1008TIP3    H113847   3.549   1.983   7.457
 1008TIP3    H213848   3.632   1.857   7.466
 1009TIP3   OH213849   2.128   3.757   7.329
 1009TIP3    H113850   2.058   3.804   7.279
 1009TIP3    H213851   2.143   3.814   7.405
 1010TIP3   OH213852   2.379   3.705   7.250
 1010TIP3    H113853   2.282   3.715   7.264
 1010TIP3    H213854   2.391   3.754   7.166
 1011TIP3   OH213855   2.903   3.709   7.175
 1011TIP3    H113856   2.830   3.742   7.119
 1011TIP3    H213857   2.905   3.781   7.242
 1012TIP3   OH213858   3.105   3.565   7.327
 1012TIP3    H113859   3.030   3.622   7.302
 1012TIP3    H213860   3.177   3.615   7.284
 1013TIP3   OH213861   3.399   3.729   7.287
 1013TIP3    H113862   3.407   3.820   7.248
 1013TIP3    H213863   3.412   3.677   7.206
 1014TIP3   OH213864   2.135   3.602   7.049
 1014TIP3    H113865   2.129   3.536   7.122
 1014TIP3    H213866   2.225   3.583   7.014
 1015TIP3   OH213867   2.360   3.532   6.919
 1015TIP3    H113868   2.339   3.438   6.943
 1015TIP3    H213869   2.448   3.541   6.961
 1016TIP3   OH213870   2.600   3.527   7.039
 1016TIP3    H113871   2.633   3.437   7.024
 1016TIP3    H213872   2.596   3.532   7.135
 1017TIP3   OH213873   2.866   2.042   6.863
 1017TIP3    H113874   2.806   1.994   6.925
 1017TIP3    H213875   2.951   1.999   6.880
 1018TIP3   OH213876   3.451   1.896   6.915
 1018TIP3    H113877   3.510   1.965   6.879
 1018TIP3    H213878   3.363   1.932   6.891
 1019TIP3   OH213879   3.593   2.064   6.761
 1019TIP3    H113880   3.651   1.992   6.726
 1019TIP3    H213881   3.662   2.131   6.786
 1020TIP3   OH213882   2.188   1.959   6.734
 1020TIP3    H113883   2.111   1.961   6.676
 1020TIP3    H213884   2.228   1.872   6.710
 1021TIP3   OH213885   2.625   1.882   6.689
 1021TIP3    H113886   2.613   1.972   6.658
 1021TIP3    H213887   2.667   1.894   6.776
 1022TIP3   OH213888   3.200   1.958   6.843
 1022TIP3    H113889   3.158   1.996   6.765
 1022TIP3    H213890   3.150   1.876   6.858
 1023TIP3   OH213891   2.055   3.559   6.376
 1023TIP3    H113892   1.961   3.549   6.351
 1023TIP3    H213893   2.064   3.655   6.355
 1024TIP3   OH213894   3.585   3.566   6.513
 1024TIP3    H113895   3.570   3.488   6.455
 1024TIP3    H213896   3.571   3.640   6.449
 1025TIP3   OH213897   2.152   2.031   7.610
 1025TIP3    H113898   2.079   1.980   7.651
 1025TIP3    H213899   2.228   1.988   7.656
 1026TIP3   OH213900   2.359   1.913   7.749
 1026TIP3    H113901   2.456   1.921   7.755
 1026TIP3    H213902   2.347   1.829   7.795
 1027TIP3   OH213903   2.299   3.697   6.137
 1027TIP3    H113904   2.227   3.688   6.202
 1027TIP3    H213905   2.335   3.607   6.137
 1028TIP3   OH213906   3.237   1.871   7.865
 1028TIP3    H113907   3.246   1.803   7.933
 1028TIP3    H213908   3.318   1.859   7.810
 1029TIP3   OH213909   3.538   3.506   7.664
 1029TIP3    H113910   3.485   3.504   7.581
 1029TIP3    H213911   3.534   3.602   7.684
 1030TIP3   OH213912   4.913   2.876   6.658
 1030TIP3    H113913   4.915   2.972   6.672
 1030TIP3    H213914   4.848   2.867   6.586
 1031TIP3   OH213915   4.884   2.792   7.012
 1031TIP3    H113916   4.864   2.758   7.101
 1031TIP3    H213917   4.802   2.775   6.964
 1032TIP3   OH213918   4.126   2.784   7.167
 1032TIP3    H113919   4.107   2.698   7.209
 1032TIP3    H213920   4.162   2.836   7.241
 1033TIP3   OH213921   4.160   3.239   6.983
 1033TIP3    H113922   4.151   3.142   6.968
 1033TIP3    H213923   4.242   3.246   7.036
 1034TIP3   OH213924   3.877   2.545   6.546
 1034TIP3    H113925   3.872   2.642   6.550
 1034TIP3    H213926   3.790   2.524   6.510
 1035TIP3   OH213927   3.897   2.769   6.737
 1035TIP3    H113928   3.937   2.699   6.794
 1035TIP3    H213929   3.955   2.845   6.755
 1036TIP3   OH213930   4.981   3.619   6.855
 1036TIP3    H113931   5.017   3.548   6.797
 1036TIP3    H213932   4.966   3.572   6.938
 1037TIP3   OH213933   4.708   3.010   7.119
 1037TIP3    H113934   4.690   3.074   7.046
 1037TIP3    H213935   4.803   3.026   7.133
 1038TIP3   OH213936   4.969   2.497   7.107
 1038TIP3    H113937   5.065   2.480   7.104
 1038TIP3    H213938   4.959   2.530   7.014
 1039TIP3   OH213939   4.353   2.278   6.800
 1039TIP3    H113940   4.364   2.366   6.757
 1039TIP3    H213941   4.277   2.243   6.750
 1040TIP3   OH213942   5.043   2.298   6.706
 1040TIP3    H113943   5.125   2.249   6.734
 1040TIP3    H213944   5.087   2.384   6.689
 1041TIP3   OH213945   4.026   2.590   6.892
 1041TIP3    H113946   4.064   2.542   6.968
 1041TIP3    H213947   4.042   2.525   6.819
 1042TIP3   OH213948   4.463   2.711   6.821
 1042TIP3    H113949   4.535   2.659   6.862
 1042TIP3    H213950   4.416   2.641   6.769
 1043TIP3   OH213951   4.247   2.200   7.231
 1043TIP3    H113952   4.216   2.259   7.159
 1043TIP3    H213953   4.168   2.206   7.287
 1044TIP3   OH213954   4.844   3.156   6.601
 1044TIP3    H113955   4.863   3.210   6.524
 1044TIP3    H213956   4.809   3.223   6.662
 1045TIP3   OH213957   4.469   2.971   7.202
 1045TIP3    H113958   4.411   3.047   7.222
 1045TIP3    H213959   4.549   3.015   7.164
 1046TIP3   OH213960   4.185   2.399   7.029
 1046TIP3    H113961   4.237   2.468   7.078
 1046TIP3    H213962   4.239   2.388   6.948
 1047TIP3   OH213963   4.266   3.107   7.315
 1047TIP3    H113964   4.299   3.183   7.262
 1047TIP3    H213965   4.179   3.138   7.348
 1048TIP3   OH213966   3.908   3.093   6.430
 1048TIP3    H113967   3.878   3.169   6.377
 1048TIP3    H213968   3.922   3.139   6.515
 1049TIP3   OH213969   4.566   1.926   6.974
 1049TIP3    H113970   4.530   1.837   6.989
 1049TIP3    H213971   4.486   1.979   6.999
 1050TIP3   OH213972   5.098   3.446   6.700
 1050TIP3    H113973   5.103   3.350   6.695
 1050TIP3    H213974   5.180   3.469   6.748
 1051TIP3   OH213975   4.780   2.796   6.421
 1051TIP3    H113976   4.734   2.871   6.383
 1051TIP3    H213977   4.786   2.738   6.343
 1052TIP3   OH213978   5.133   2.755   6.550
 1052TIP3    H113979   5.056   2.788   6.601
 1052TIP3    H213980   5.207   2.806   6.589
 1053TIP3   OH213981   5.101   2.601   7.414
 1053TIP3    H113982   5.061   2.655   7.484
 1053TIP3    H213983   5.051   2.625   7.335
 1054TIP3   OH213984   4.300   2.920   6.748
 1054TIP3    H113985   4.261   2.898   6.660
 1054TIP3    H213986   4.368   2.849   6.757
 1055TIP3   OH213987   4.613   3.196   6.951
 1055TIP3    H113988   4.544   3.201   6.884
 1055TIP3    H213989   4.571   3.244   7.024
 1056TIP3   OH213990   4.386   2.752   7.074
 1056TIP3    H113991   4.401   2.761   6.978
 1056TIP3    H213992   4.424   2.836   7.111
 1057TIP3   OH213993   5.005   3.366   7.143
 1057TIP3    H113994   5.042   3.426   7.211
 1057TIP3    H213995   5.018   3.278   7.183
 1058TIP3   OH213996   4.444   3.141   7.528
 1058TIP3    H113997   4.411   3.227   7.562
 1058TIP3    H213998   4.386   3.130   7.449
 1059TIP3   OH213999   5.104   2.730   6.290
 1059TIP3    H114000   5.113   2.739   6.388
 1059TIP3    H214001   5.077   2.820   6.270
 1060TIP3   OH214002   4.162   2.835   7.440
 1060TIP3    H114003   4.158   2.897   7.516
 1060TIP3    H214004   4.069   2.803   7.438
 1061TIP3   OH214005   4.816   3.459   6.580
 1061TIP3    H114006   4.875   3.490   6.650
 1061TIP3    H214007   4.769   3.541   6.552
 1062TIP3   OH214008   4.368   3.396   7.651
 1062TIP3    H114009   4.385   3.453   7.573
 1062TIP3    H214010   4.271   3.400   7.647
 1063TIP3   OH214011   4.190   2.783   6.520
 1063TIP3    H114012   4.142   2.837   6.455
 1063TIP3    H214013   4.204   2.701   6.470
 1064TIP3   OH214014   3.902   3.037   7.373
 1064TIP3    H114015   3.822   3.050   7.316
 1064TIP3    H214016   3.928   2.949   7.342
 1065TIP3   OH214017   3.861   3.351   6.989
 1065TIP3    H114018   3.894   3.261   6.971
 1065TIP3    H214019   3.917   3.375   7.064
 1066TIP3   OH214020   4.768   3.314   7.521
 1066TIP3    H114021   4.778   3.403   7.562
 1066TIP3    H214022   4.691   3.330   7.464
 1067TIP3   OH214023   4.771   3.712   6.470
 1067TIP3    H114024   4.792   3.735   6.377
 1067TIP3    H214025   4.780   3.797   6.516
 1068TIP3   OH214026   4.161   3.575   6.681
 1068TIP3    H114027   4.208   3.552   6.765
 1068TIP3    H214028   4.073   3.542   6.701
 1069TIP3   OH214029   5.047   3.642   6.444
 1069TIP3    H114030   4.953   3.620   6.445
 1069TIP3    H214031   5.086   3.557   6.421
 1070TIP3   OH214032   4.068   3.232   7.465
 1070TIP3    H114033   4.095   3.187   7.547
 1070TIP3    H214034   4.002   3.168   7.432
 1071TIP3   OH214035   4.335   2.030   7.048
 1071TIP3    H114036   4.245   2.025   7.012
 1071TIP3    H214037   4.322   2.098   7.117
 1072TIP3   OH214038   4.813   1.965   7.396
 1072TIP3    H114039   4.837   1.950   7.489
 1072TIP3    H214040   4.714   1.969   7.396
 1073TIP3   OH214041   5.231   2.381   7.503
 1073TIP3    H114042   5.145   2.363   7.544
 1073TIP3    H214043   5.211   2.469   7.464
 1074TIP3   OH214044   4.381   2.513   7.182
 1074TIP3    H114045   4.324   2.533   7.259
 1074TIP3    H214046   4.375   2.600   7.136
 1075TIP3   OH214047   4.315   2.517   6.698
 1075TIP3    H114048   4.220   2.509   6.676
 1075TIP3    H214049   4.360   2.511   6.610
 1076TIP3   OH214050   4.854   2.559   6.555
 1076TIP3    H114051   4.831   2.646   6.515
 1076TIP3    H214052   4.947   2.548   6.524
 1077TIP3   OH214053   4.814   2.610   7.689
 1077TIP3    H114054   4.770   2.528   7.721
 1077TIP3    H214055   4.893   2.613   7.747
 1078TIP3   OH214056   4.949   2.541   6.832
 1078TIP3    H114057   4.917   2.602   6.762
 1078TIP3    H214058   4.956   2.458   6.781
 1079TIP3   OH214059   4.095   2.525   7.282
 1079TIP3    H114060   4.126   2.570   7.362
 1079TIP3    H214061   4.075   2.434   7.315
 1080TIP3   OH214062   3.798   2.230   6.789
 1080TIP3    H114063   3.878   2.240   6.843
 1080TIP3    H214064   3.824   2.257   6.699
 1081TIP3   OH214065   3.923   2.364   6.268
 1081TIP3    H114066   3.959   2.415   6.193
 1081TIP3    H214067   3.854   2.424   6.299
 1082TIP3   OH214068   4.839   2.680   7.264
 1082TIP3    H114069   4.877   2.609   7.207
 1082TIP3    H214070   4.814   2.624   7.341
 1083TIP3   OH214071   4.640   2.290   6.787
 1083TIP3    H114072   4.551   2.301   6.826
 1083TIP3    H214073   4.677   2.219   6.842
 1084TIP3   OH214074   4.063   2.425   6.689
 1084TIP3    H114075   4.005   2.464   6.620
 1084TIP3    H214076   4.084   2.336   6.652
 1085TIP3   OH214077   4.468   2.497   6.478
 1085TIP3    H114078   4.551   2.461   6.442
 1085TIP3    H214079   4.436   2.552   6.403
 1086TIP3   OH214080   5.088   2.153   7.109
 1086TIP3    H114081   4.996   2.173   7.132
 1086TIP3    H214082   5.079   2.103   7.025
 1087TIP3   OH214083   4.329   2.592   6.249
 1087TIP3    H114084   4.254   2.565   6.194
 1087TIP3    H214085   4.393   2.631   6.187
 1088TIP3   OH214086   4.126   3.034   7.645
 1088TIP3    H114087   4.189   3.054   7.717
 1088TIP3    H214088   4.056   2.991   7.697
 1089TIP3   OH214089   4.695   2.573   6.932
 1089TIP3    H114090   4.776   2.539   6.888
 1089TIP3    H214091   4.709   2.544   7.023
 1090TIP3   OH214092   4.159   2.180   6.637
 1090TIP3    H114093   4.110   2.106   6.679
 1090TIP3    H214094   4.237   2.134   6.607
 1091TIP3   OH214095   4.600   2.349   7.178
 1091TIP3    H114096   4.527   2.416   7.178
 1091TIP3    H214097   4.667   2.390   7.233
 1092TIP3   OH214098   4.606   3.070   6.364
 1092TIP3    H114099   4.543   3.010   6.407
 1092TIP3    H214100   4.634   3.116   6.446
 1093TIP3   OH214101   4.817   3.031   7.490
 1093TIP3    H114102   4.908   3.021   7.528
 1093TIP3    H214103   4.799   3.128   7.497
 1094TIP3   OH214104   5.083   2.498   6.424
 1094TIP3    H114105   5.127   2.418   6.391
 1094TIP3    H214106   5.100   2.560   6.349
 1095TIP3   OH214107   4.132   2.959   6.959
 1095TIP3    H114108   4.198   2.953   6.887
 1095TIP3    H214109   4.162   2.887   7.020
 1096TIP3   OH214110   3.898   2.725   7.445
 1096TIP3    H114111   3.911   2.732   7.541
 1096TIP3    H214112   3.804   2.703   7.439
 1097TIP3   OH214113   4.560   2.727   7.635
 1097TIP3    H114114   4.508   2.667   7.579
 1097TIP3    H214115   4.644   2.676   7.647
 1098TIP3   OH214116   5.046   3.249   7.504
 1098TIP3    H114117   4.954   3.275   7.490
 1098TIP3    H214118   5.074   3.321   7.565
 1099TIP3   OH214119   5.101   2.891   7.130
 1099TIP3    H114120   5.035   2.864   7.063
 1099TIP3    H214121   5.181   2.915   7.081
 1100TIP3   OH214122   4.391   3.309   6.713
 1100TIP3    H114123   4.429   3.399   6.717
 1100TIP3    H214124   4.302   3.326   6.679
 1101TIP3   OH214125   4.517   3.077   6.622
 1101TIP3    H114126   4.470   3.157   6.653
 1101TIP3    H214127   4.508   3.020   6.699
 1102TIP3   OH214128   4.633   3.575   7.233
 1102TIP3    H114129   4.722   3.614   7.215
 1102TIP3    H214130   4.657   3.484   7.259
 1103TIP3   OH214131   4.440   3.598   6.593
 1103TIP3    H114132   4.343   3.595   6.598
 1103TIP3    H214133   4.461   3.693   6.609
 1104TIP3   OH214134   4.946   3.066   7.250
 1104TIP3    H114135   4.908   3.022   7.328
 1104TIP3    H214136   5.002   2.995   7.209
 1105TIP3   OH214137   4.035   2.284   7.394
 1105TIP3    H114138   3.961   2.343   7.420
 1105TIP3    H214139   4.020   2.207   7.452
 1106TIP3   OH214140   4.023   3.470   7.255
 1106TIP3    H114141   4.052   3.382   7.282
 1106TIP3    H214142   4.063   3.522   7.327
 1107TIP3   OH214143   4.629   3.312   6.063
 1107TIP3    H114144   4.551   3.300   6.120
 1107TIP3    H214145   4.687   3.357   6.126
 1108TIP3   OH214146   4.429   3.262   6.245
 1108TIP3    H114147   4.493   3.201   6.287
 1108TIP3    H214148   4.444   3.348   6.291
 1109TIP3   OH214149   4.141   3.018   6.250
 1109TIP3    H114150   4.060   3.015   6.304
 1109TIP3    H214151   4.193   3.089   6.288
 1110TIP3   OH214152   4.865   2.248   7.383
 1110TIP3    H114153   4.961   2.259   7.390
 1110TIP3    H214154   4.856   2.150   7.380
 1111TIP3   OH214155   5.021   2.172   6.450
 1111TIP3    H114156   4.947   2.235   6.453
 1111TIP3    H214157   5.045   2.166   6.545
 1112TIP3   OH214158   4.737   2.314   6.524
 1112TIP3    H114159   4.777   2.404   6.529
 1112TIP3    H214160   4.683   2.316   6.607
 1113TIP3   OH214161   4.769   2.503   7.448
 1113TIP3    H114162   4.798   2.527   7.538
 1113TIP3    H214163   4.798   2.409   7.441
 1114TIP3   OH214164   4.745   2.051   6.619
 1114TIP3    H114165   4.766   2.064   6.714
 1114TIP3    H214166   4.753   2.144   6.587
 1115TIP3   OH214167   4.461   3.530   6.329
 1115TIP3    H114168   4.502   3.608   6.287
 1115TIP3    H214169   4.464   3.555   6.424
 1116TIP3   OH214170   4.076   1.998   6.995
 1116TIP3    H114171   4.052   1.982   6.900
 1116TIP3    H214172   4.064   1.906   7.028
 1117TIP3   OH214173   3.932   3.336   6.537
 1117TIP3    H114174   3.887   3.389   6.603
 1117TIP3    H214175   3.955   3.407   6.473
 1118TIP3   OH214176   3.879   3.645   7.727
 1118TIP3    H114177   3.957   3.626   7.785
 1118TIP3    H214178   3.856   3.555   7.695
 1119TIP3   OH214179   4.392   3.505   7.903
 1119TIP3    H114180   4.487   3.483   7.910
 1119TIP3    H214181   4.370   3.456   7.822
 1120TIP3   OH214182   5.012   3.404   7.742
 1120TIP3    H114183   4.976   3.314   7.760
 1120TIP3    H214184   5.084   3.405   7.807
 1121TIP3   OH214185   3.945   3.050   7.842
 1121TIP3    H114186   3.900   2.987   7.900
 1121TIP3    H214187   3.888   3.042   7.764
 1122TIP3   OH214188   4.572   2.995   7.721
 1122TIP3    H114189   4.488   3.037   7.693
 1122TIP3    H214190   4.554   2.900   7.732
 1123TIP3   OH214191   5.095   2.991   7.563
 1123TIP3    H114192   5.182   2.985   7.519
 1123TIP3    H214193   5.082   3.087   7.550
 1124TIP3   OH214194   3.952   2.786   7.709
 1124TIP3    H114195   3.936   2.690   7.729
 1124TIP3    H214196   3.954   2.816   7.801
 1125TIP3   OH214197   4.338   2.628   7.413
 1125TIP3    H114198   4.284   2.709   7.428
 1125TIP3    H214199   4.418   2.668   7.372
 1126TIP3   OH214200   4.917   2.913   7.828
 1126TIP3    H114201   4.996   2.895   7.776
 1126TIP3    H214202   4.918   2.838   7.889
 1127TIP3   OH214203   4.415   2.442   7.582
 1127TIP3    H114204   4.437   2.360   7.533
 1127TIP3    H214205   4.380   2.498   7.509
 1128TIP3   OH214206   4.474   2.224   7.382
 1128TIP3    H114207   4.531   2.261   7.311
 1128TIP3    H214208   4.385   2.228   7.340
 1129TIP3   OH214209   4.576   2.773   7.349
 1129TIP3    H114210   4.659   2.744   7.304
 1129TIP3    H214211   4.540   2.838   7.283
 1130TIP3   OH214212   5.030   2.505   7.904
 1130TIP3    H114213   4.981   2.426   7.877
 1130TIP3    H214214   5.123   2.477   7.891
 1131TIP3   OH214215   4.277   2.483   7.826
 1131TIP3    H114216   4.194   2.432   7.824
 1131TIP3    H214217   4.307   2.473   7.734
 1132TIP3   OH214218   4.540   1.965   7.340
 1132TIP3    H114219   4.507   2.053   7.368
 1132TIP3    H214220   4.458   1.921   7.314
 1133TIP3   OH214221   4.652   2.388   7.750
 1133TIP3    H114222   4.599   2.368   7.829
 1133TIP3    H214223   4.591   2.362   7.679
 1134TIP3   OH214224   4.935   2.299   7.673
 1134TIP3    H114225   4.843   2.282   7.699
 1134TIP3    H214226   4.988   2.241   7.732
 1135TIP3   OH214227   5.088   2.175   7.858
 1135TIP3    H114228   5.093   2.076   7.853
 1135TIP3    H214229   5.091   2.188   7.955
 1136TIP3   OH214230   4.055   2.263   7.795
 1136TIP3    H114231   4.051   2.188   7.731
 1136TIP3    H214232   4.070   2.214   7.878
 1137TIP3   OH214233   4.558   1.890   7.685
 1137TIP3    H114234   4.637   1.835   7.665
 1137TIP3    H214235   4.521   1.901   7.596
 1138TIP3   OH214236   4.561   2.014   7.938
 1138TIP3    H114237   4.578   1.955   7.862
 1138TIP3    H214238   4.506   2.080   7.892
 1139TIP3   OH214239   4.561   3.800   6.155
 1139TIP3    H114240   4.656   3.785   6.176
 1139TIP3    H214241   4.563   3.804   6.058
 1140TIP3   OH214242   3.791   3.753   6.663
 1140TIP3    H114243   3.739   3.705   6.597
 1140TIP3    H214244   3.812   3.681   6.726
 1141TIP3   OH214245   3.885   3.554   6.816
 1141TIP3    H114246   3.854   3.471   6.859
 1141TIP3    H214247   3.940   3.592   6.888
 1142TIP3   OH214248   3.861   2.793   7.117
 1142TIP3    H114249   3.843   2.836   7.032
 1142TIP3    H214250   3.959   2.804   7.127
 1143TIP3   OH214251   3.856   2.361   7.650
 1143TIP3    H114252   3.941   2.355   7.699
 1143TIP3    H214253   3.812   2.279   7.683
 1144TIP3   OH214254   3.960   2.226   7.073
 1144TIP3    H114255   4.004   2.145   7.036
 1144TIP3    H214256   4.031   2.293   7.070
 1145TIP3   OH214257   3.816   2.537   7.050
 1145TIP3    H114258   3.876   2.529   6.974
 1145TIP3    H214259   3.828   2.632   7.076
 1146TIP3   OH214260   3.758   2.214   6.509
 1146TIP3    H114261   3.671   2.174   6.494
 1146TIP3    H214262   3.802   2.194   6.424
 1147TIP3   OH214263   3.807   1.999   7.316
 1147TIP3    H114264   3.745   1.985   7.390
 1147TIP3    H214265   3.761   2.067   7.264
 1148TIP3   OH214266   4.092   3.352   7.770
 1148TIP3    H114267   3.999   3.366   7.750
 1148TIP3    H214268   4.094   3.258   7.793
 1149TIP3   OH214269   4.346   3.496   7.396
 1149TIP3    H114270   4.350   3.578   7.342
 1149TIP3    H214271   4.367   3.432   7.324
 1150TIP3   OH214272   4.743   3.607   7.625
 1150TIP3    H114273   4.752   3.575   7.717
 1150TIP3    H214274   4.829   3.653   7.615
 1151TIP3   OH214275   4.976   3.734   7.621
 1151TIP3    H114276   5.040   3.687   7.565
 1151TIP3    H214277   5.022   3.747   7.707
 1152TIP3   OH214278   4.082   3.786   7.338
 1152TIP3    H114279   4.011   3.849   7.313
 1152TIP3    H214280   4.063   3.778   7.433
 1153TIP3   OH214281   4.302   3.691   7.213
 1153TIP3    H114282   4.215   3.720   7.250
 1153TIP3    H214283   4.333   3.774   7.170
 1154TIP3   OH214284   4.858   3.719   7.178
 1154TIP3    H114285   4.856   3.788   7.111
 1154TIP3    H214286   4.844   3.775   7.258
 1155TIP3   OH214287   5.066   3.598   7.302
 1155TIP3    H114288   4.989   3.619   7.244
 1155TIP3    H214289   5.110   3.684   7.303
 1156TIP3   OH214290   4.039   3.638   7.036
 1156TIP3    H114291   4.018   3.586   7.117
 1156TIP3    H214292   4.130   3.604   7.022
 1157TIP3   OH214293   4.274   3.534   6.933
 1157TIP3    H114294   4.259   3.441   6.962
 1157TIP3    H214295   4.361   3.550   6.976
 1158TIP3   OH214296   4.540   3.534   6.994
 1158TIP3    H114297   4.514   3.441   7.014
 1158TIP3    H214298   4.554   3.562   7.087
 1159TIP3   OH214299   4.786   2.066   6.895
 1159TIP3    H114300   4.719   2.011   6.941
 1159TIP3    H214301   4.868   2.016   6.903
 1160TIP3   OH214302   4.022   1.953   6.732
 1160TIP3    H114303   3.938   1.949   6.681
 1160TIP3    H214304   4.067   1.873   6.697
 1161TIP3   OH214305   4.510   1.950   6.691
 1161TIP3    H114306   4.589   1.995   6.656
 1161TIP3    H214307   4.525   1.959   6.787
 1162TIP3   OH214308   5.094   1.960   6.873
 1162TIP3    H114309   5.121   1.981   6.782
 1162TIP3    H214310   5.060   1.869   6.869
 1163TIP3   OH214311   3.892   3.549   6.376
 1163TIP3    H114312   3.796   3.540   6.375
 1163TIP3    H214313   3.907   3.637   6.340
 1164TIP3   OH214314   4.825   3.710   6.198
 1164TIP3    H114315   4.912   3.746   6.173
 1164TIP3    H214316   4.848   3.615   6.205
 1165TIP3   OH214317   4.032   2.016   7.655
 1165TIP3    H114318   3.979   1.936   7.675
 1165TIP3    H214319   4.119   1.990   7.692
 1166TIP3   OH214320   4.234   1.925   7.824
 1166TIP3    H114321   4.326   1.909   7.801
 1166TIP3    H214322   4.205   1.838   7.858
 1167TIP3   OH214323   5.135   1.910   7.862
 1167TIP3    H114324   5.171   1.881   7.948
 1167TIP3    H214325   5.206   1.881   7.801
 1168TIP3   OH214326   1.237   4.757   6.656
 1168TIP3    H114327   1.259   4.852   6.667
 1168TIP3    H214328   1.143   4.766   6.642
 1169TIP3   OH214329   1.137   4.629   6.988
 1169TIP3    H114330   1.118   4.630   7.084
 1169TIP3    H214331   1.047   4.631   6.949
 1170TIP3   OH214332   0.317   4.659   7.190
 1170TIP3    H114333   0.296   4.573   7.231
 1170TIP3    H214334   0.389   4.690   7.247
 1171TIP3   OH214335   1.383   5.038   6.898
 1171TIP3    H114336   1.425   4.955   6.923
 1171TIP3    H214337   1.458   5.101   6.899
 1172TIP3   OH214338   0.416   5.082   7.058
 1172TIP3    H114339   0.391   4.993   7.028
 1172TIP3    H214340   0.509   5.084   7.023
 1173TIP3   OH214341   0.008   4.415   6.659
 1173TIP3    H114342   0.061   4.474   6.715
 1173TIP3    H214343   0.018   4.455   6.571
 1174TIP3   OH214344   0.183   4.701   6.791
 1174TIP3    H114345   0.203   4.610   6.825
 1174TIP3    H214346   0.203   4.695   6.698
 1175TIP3   OH214347   0.887   4.932   7.095
 1175TIP3    H114348   0.922   4.947   7.006
 1175TIP3    H214349   0.967   4.956   7.147
 1176TIP3   OH214350   1.793   4.089   7.071
 1176TIP3    H114351   1.805   4.136   7.156
 1176TIP3    H214352   1.883   4.099   7.033
 1177TIP3   OH214353   1.285   4.392   7.132
 1177TIP3    H114354   1.325   4.307   7.157
 1177TIP3    H214355   1.291   4.386   7.034
 1178TIP3   OH214356   0.539   4.178   6.800
 1178TIP3    H114357   0.593   4.235   6.743
 1178TIP3    H214358   0.485   4.127   6.734
 1179TIP3   OH214359   1.356   4.172   6.647
 1179TIP3    H114360   1.381   4.145   6.738
 1179TIP3    H214361   1.370   4.267   6.653
 1180TIP3   OH214362   0.253   4.462   6.874
 1180TIP3    H114363   0.299   4.413   6.944
 1180TIP3    H214364   0.265   4.401   6.798
 1181TIP3   OH214365   0.699   4.583   6.854
 1181TIP3    H114366   0.783   4.543   6.884
 1181TIP3    H214367   0.666   4.513   6.793
 1182TIP3   OH214368   1.807   4.225   7.377
 1182TIP3    H114369   1.775   4.314   7.352
 1182TIP3    H214370   1.832   4.237   7.470
 1183TIP3   OH214371   0.496   4.089   7.239
 1183TIP3    H114372   0.455   4.098   7.151
 1183TIP3    H214373   0.416   4.089   7.294
 1184TIP3   OH214374   1.173   5.015   6.597
 1184TIP3    H114375   1.140   5.009   6.505
 1184TIP3    H214376   1.092   5.046   6.640
 1185TIP3   OH214377   0.696   4.834   7.244
 1185TIP3    H114378   0.632   4.903   7.270
 1185TIP3    H214379   0.763   4.884   7.193
 1186TIP3   OH214380   1.499   4.148   6.892
 1186TIP3    H114381   1.519   4.073   6.950
 1186TIP3    H214382   1.583   4.196   6.899
 1187TIP3   OH214383   0.391   4.264   7.015
 1187TIP3    H114384   0.460   4.314   7.065
 1187TIP3    H214385   0.445   4.229   6.940
 1188TIP3   OH214386   0.548   5.071   7.300
 1188TIP3    H114387   0.498   5.090   7.218
 1188TIP3    H214388   0.472   5.074   7.362
 1189TIP3   OH214389   0.101   4.975   6.463
 1189TIP3    H114390   0.160   4.985   6.386
 1189TIP3    H214391   0.082   5.069   6.480
 1190TIP3   OH214392   1.467   5.168   7.168
 1190TIP3    H114393   1.389   5.136   7.119
 1190TIP3    H214394   1.532   5.174   7.095
 1191TIP3   OH214395   1.552   4.006   7.194
 1191TIP3    H114396   1.464   4.008   7.148
 1191TIP3    H214397   1.597   4.079   7.149
 1192TIP3   OH214398   0.805   3.820   6.967
 1192TIP3    H114399   0.763   3.733   6.974
 1192TIP3    H214400   0.727   3.879   6.979
 1193TIP3   OH214401   1.431   5.130   6.571
 1193TIP3    H114402   1.453   5.060   6.506
 1193TIP3    H214403   1.371   5.076   6.626
 1194TIP3   OH214404   1.594   5.040   7.449
 1194TIP3    H114405   1.610   4.969   7.383
 1194TIP3    H214406   1.531   5.092   7.397
 1195TIP3   OH214407   1.041   4.737   6.398
 1195TIP3    H114408   0.950   4.748   6.362
 1195TIP3    H214409   1.075   4.828   6.386
 1196TIP3   OH214410   1.141   4.512   6.107
 1196TIP3    H114411   1.092   4.557   6.177
 1196TIP3    H214412   1.142   4.419   6.133
 1197TIP3   OH214413   1.829   4.666   7.248
 1197TIP3    H114414   1.770   4.741   7.270
 1197TIP3    H214415   1.897   4.707   7.189
 1198TIP3   OH214416   1.407   4.569   6.570
 1198TIP3    H114417   1.346   4.635   6.612
 1198TIP3    H214418   1.487   4.582   6.625
 1199TIP3   OH214419   1.416   4.541   7.430
 1199TIP3    H114420   1.391   4.611   7.493
 1199TIP3    H214421   1.356   4.564   7.357
 1200TIP3   OH214422   0.629   4.753   6.653
 1200TIP3    H114423   0.624   4.713   6.564
 1200TIP3    H214424   0.651   4.679   6.712
 1201TIP3   OH214425   0.681   5.092   6.989
 1201TIP3    H114426   0.701   5.088   6.894
 1201TIP3    H214427   0.743   5.030   7.031
 1202TIP3   OH214428   0.577   4.650   7.077
 1202TIP3    H114429   0.626   4.648   6.991
 1202TIP3    H214430   0.626   4.716   7.129
 1203TIP3   OH214431   0.652   5.004   7.555
 1203TIP3    H114432   0.587   5.053   7.609
 1203TIP3    H214433   0.604   4.999   7.470
 1204TIP3   OH214434   0.429   4.692   7.454
 1204TIP3    H114435   0.415   4.751   7.531
 1204TIP3    H214436   0.334   4.670   7.437
 1205TIP3   OH214437   1.647   3.827   6.251
 1205TIP3    H114438   1.550   3.830   6.266
 1205TIP3    H214439   1.676   3.901   6.307
 1206TIP3   OH214440   0.115   4.922   7.346
 1206TIP3    H114441   0.078   4.901   7.259
 1206TIP3    H214442   0.159   4.837   7.365
 1207TIP3   OH214443   1.523   4.369   7.665
 1207TIP3    H114444   1.478   4.414   7.591
 1207TIP3    H214445   1.497   4.276   7.653
 1208TIP3   OH214446   0.332   5.048   7.454
 1208TIP3    H114447   0.328   4.992   7.535
 1208TIP3    H214448   0.245   5.029   7.414
 1209TIP3   OH214449   0.592   3.969   7.009
 1209TIP3    H114450   0.502   3.965   6.973
 1209TIP3    H214451   0.576   3.931   7.099
 1210TIP3   OH214452   1.054   3.888   7.386
 1210TIP3    H114453   1.065   3.856   7.477
 1210TIP3    H214454   0.956   3.889   7.377
 1211TIP3   OH214455   1.347   4.271   7.429
 1211TIP3    H114456   1.285   4.254   7.504
 1211TIP3    H214457   1.326   4.363   7.410
 1212TIP3   OH214458   0.605   4.388   7.133
 1212TIP3    H114459   0.581   4.399   7.227
 1212TIP3    H214460   0.587   4.481   7.106
 1213TIP3   OH214461   0.607   4.413   6.649
 1213TIP3    H114462   0.512   4.397   6.655
 1213TIP3    H214463   0.623   4.393   6.554
 1214TIP3   OH214464   1.118   4.473   6.561
 1214TIP3    H114465   1.080   4.561   6.548
 1214TIP3    H214466   1.212   4.493   6.550
 1215TIP3   OH214467   0.994   4.539   7.694
 1215TIP3    H114468   0.959   4.448   7.711
 1215TIP3    H214469   1.073   4.535   7.750
 1216TIP3   OH214470   1.285   4.447   6.863
 1216TIP3    H114471   1.238   4.528   6.896
 1216TIP3    H214472   1.234   4.427   6.783
 1217TIP3   OH214473   0.305   4.405   7.290
 1217TIP3    H114474   0.370   4.411   7.362
 1217TIP3    H214475   0.292   4.308   7.284
 1218TIP3   OH214476   0.639   4.217   6.050
 1218TIP3    H114477   0.628   4.157   6.127
 1218TIP3    H214478   0.571   4.181   5.992
 1219TIP3   OH214479   0.109   4.110   6.743
 1219TIP3    H114480   0.118   4.049   6.816
 1219TIP3    H214481   0.095   4.053   6.665
 1220TIP3   OH214482   0.120   4.304   6.337
 1220TIP3    H114483   0.203   4.282   6.294
 1220TIP3    H214484   0.057   4.259   6.278
 1221TIP3   OH214485   1.138   4.584   7.259
 1221TIP3    H114486   1.202   4.525   7.213
 1221TIP3    H214487   1.080   4.515   7.298
 1222TIP3   OH214488   0.831   4.146   6.816
 1222TIP3    H114489   0.736   4.143   6.837
 1222TIP3    H214490   0.870   4.116   6.899
 1223TIP3   OH214491   0.289   4.335   6.644
 1223TIP3    H114492   0.216   4.327   6.580
 1223TIP3    H214493   0.305   4.240   6.663
 1224TIP3   OH214494   0.626   4.370   6.379
 1224TIP3    H114495   0.720   4.394   6.374
 1224TIP3    H214496   0.585   4.450   6.340
 1225TIP3   OH214497   1.310   4.032   7.102
 1225TIP3    H114498   1.223   4.033   7.144
 1225TIP3    H214499   1.287   4.024   7.008
 1226TIP3   OH214500   0.358   4.867   7.653
 1226TIP3    H114501   0.428   4.890   7.718
 1226TIP3    H214502   0.280   4.860   7.712
 1227TIP3   OH214503   0.929   4.455   6.914
 1227TIP3    H114504   1.015   4.415   6.895
 1227TIP3    H214505   0.897   4.396   6.985
 1228TIP3   OH214506   0.391   4.067   6.610
 1228TIP3    H114507   0.354   3.978   6.633
 1228TIP3    H214508   0.438   4.046   6.528
 1229TIP3   OH214509   0.868   4.278   7.169
 1229TIP3    H114510   0.775   4.307   7.176
 1229TIP3    H214511   0.913   4.320   7.243
 1230TIP3   OH214512   1.632   4.862   7.256
 1230TIP3    H114513   1.666   4.921   7.185
 1230TIP3    H214514   1.550   4.828   7.214
 1231TIP3   OH214515   0.998   4.968   7.462
 1231TIP3    H114516   1.006   4.935   7.553
 1231TIP3    H214517   0.941   5.045   7.472
 1232TIP3   OH214518   0.469   4.841   6.913
 1232TIP3    H114519   0.494   4.810   6.824
 1232TIP3    H214520   0.461   4.759   6.966
 1233TIP3   OH214521   1.068   5.022   6.349
 1233TIP3    H114522   1.076   5.119   6.344
 1233TIP3    H214523   0.974   5.005   6.329
 1234TIP3   OH214524   0.163   4.653   7.441
 1234TIP3    H114525   0.141   4.663   7.537
 1234TIP3    H214526   0.081   4.609   7.412
 1235TIP3   OH214527   0.723   4.631   7.654
 1235TIP3    H114528   0.702   4.669   7.567
 1235TIP3    H214529   0.807   4.585   7.632
 1236TIP3   OH214530   1.251   5.131   7.526
 1236TIP3    H114531   1.175   5.176   7.488
 1236TIP3    H214532   1.273   5.191   7.600
 1237TIP3   OH214533   1.838   4.386   6.360
 1237TIP3    H114534   1.749   4.364   6.329
 1237TIP3    H214535   1.851   4.475   6.325
 1238TIP3   OH214536   1.838   4.942   7.576
 1238TIP3    H114537   1.752   4.969   7.542
 1238TIP3    H214538   1.897   4.956   7.499
 1239TIP3   OH214539   1.414   4.760   7.084
 1239TIP3    H114540   1.331   4.711   7.089
 1239TIP3    H214541   1.474   4.699   7.035
 1240TIP3   OH214542   0.596  -0.032   6.671
 1240TIP3    H114543   0.650   0.047   6.692
 1240TIP3    H214544   0.508   0.007   6.660
 1241TIP3   OH214545   0.191   4.704   6.191
 1241TIP3    H114546   0.278   4.708   6.233
 1241TIP3    H214547   0.166   4.799   6.194
 1242TIP3   OH214548   0.806   4.991   6.676
 1242TIP3    H114549   0.723   5.038   6.652
 1242TIP3    H214550   0.769   4.902   6.686
 1243TIP3   OH214551   1.131   4.968   7.200
 1243TIP3    H114552   1.109   4.956   7.295
 1243TIP3    H214553   1.196   4.897   7.186
 1244TIP3   OH214554   1.318   5.078   6.168
 1244TIP3    H114555   1.412   5.066   6.184
 1244TIP3    H214556   1.285   4.988   6.179
 1245TIP3   OH214557   0.262   4.145   7.379
 1245TIP3    H114558   0.169   4.167   7.401
 1245TIP3    H214559   0.285   4.088   7.455
 1246TIP3   OH214560   1.480   4.918   6.390
 1246TIP3    H114561   1.497   4.833   6.431
 1246TIP3    H214562   1.567   4.936   6.348
 1247TIP3   OH214563   0.677   5.199   6.274
 1247TIP3    H114564   0.742   5.189   6.343
 1247TIP3    H214565   0.703   5.283   6.233
 1248TIP3   OH214566   1.124   4.145   7.361
 1248TIP3    H114567   1.222   4.150   7.372
 1248TIP3    H214568   1.102   4.051   7.374
 1249TIP3   OH214569   0.938   4.244   6.575
 1249TIP3    H114570   0.966   4.337   6.588
 1249TIP3    H214571   0.892   4.226   6.660
 1250TIP3   OH214572   1.012   4.406   7.410
 1250TIP3    H114573   1.003   4.446   7.498
 1250TIP3    H214574   1.041   4.314   7.429
 1251TIP3   OH214575   1.018   3.975   6.605
 1251TIP3    H114576   1.037   3.959   6.699
 1251TIP3    H214577   1.019   4.073   6.603
 1252TIP3   OH214578   0.570   4.076   6.282
 1252TIP3    H114579   0.556   4.162   6.325
 1252TIP3    H214580   0.665   4.059   6.301
 1253TIP3   OH214581   1.567   4.130   7.484
 1253TIP3    H114582   1.487   4.181   7.460
 1253TIP3    H214583   1.627   4.146   7.409
 1254TIP3   OH214584   1.523   4.543   6.923
 1254TIP3    H114585   1.442   4.489   6.915
 1254TIP3    H214586   1.581   4.486   6.978
 1255TIP3   OH214587   0.426   5.052   6.340
 1255TIP3    H114588   0.455   5.144   6.327
 1255TIP3    H214589   0.505   5.008   6.308
 1256TIP3   OH214590   0.119   4.411   6.071
 1256TIP3    H114591   0.181   4.453   6.132
 1256TIP3    H214592   0.121   4.475   5.998
 1257TIP3   OH214593   0.311   3.886   6.987
 1257TIP3    H114594   0.329   3.847   6.900
 1257TIP3    H214595   0.309   3.805   7.042
 1258TIP3   OH214596   0.124   4.939   7.803
 1258TIP3    H114597   0.071   4.882   7.863
 1258TIP3    H214598   0.063   4.953   7.729
 1259TIP3   OH214599   0.843   4.892   7.720
 1259TIP3    H114600   0.792   4.933   7.646
 1259TIP3    H214601   0.833   4.797   7.698
 1260TIP3   OH214602   1.054   5.040   6.010
 1260TIP3    H114603   1.097   5.125   6.024
 1260TIP3    H214604   1.013   5.023   6.095
 1261TIP3   OH214605   1.358   4.888   7.500
 1261TIP3    H114606   1.444   4.932   7.510
 1261TIP3    H214607   1.298   4.966   7.510
 1262TIP3   OH214608   0.203   4.644   7.725
 1262TIP3    H114609   0.218   4.550   7.744
 1262TIP3    H214610   0.200   4.676   7.816
 1263TIP3   OH214611   0.562   4.478   7.387
 1263TIP3    H114612   0.507   4.554   7.416
 1263TIP3    H214613   0.650   4.517   7.402
 1264TIP3   OH214614   1.150   4.813   7.828
 1264TIP3    H114615   1.204   4.747   7.782
 1264TIP3    H214616   1.065   4.768   7.837
 1265TIP3   OH214617   0.627   4.278   7.554
 1265TIP3    H114618   0.663   4.208   7.495
 1265TIP3    H214619   0.585   4.343   7.494
 1266TIP3   OH214620   0.740   4.107   7.364
 1266TIP3    H114621   0.800   4.130   7.291
 1266TIP3    H214622   0.653   4.097   7.319
 1267TIP3   OH214623   0.825   4.663   7.405
 1267TIP3    H114624   0.920   4.666   7.383
 1267TIP3    H214625   0.784   4.728   7.342
 1268TIP3   OH214626   1.236   4.438   7.877
 1268TIP3    H114627   1.257   4.348   7.848
 1268TIP3    H214628   1.320   4.481   7.862
 1269TIP3   OH214629   1.349   4.660   7.667
 1269TIP3    H114630   1.350   4.747   7.620
 1269TIP3    H214631   1.440   4.659   7.699
 1270TIP3   OH214632   0.503   4.417   7.857
 1270TIP3    H114633   0.412   4.383   7.849
 1270TIP3    H214634   0.529   4.416   7.763
 1271TIP3   OH214635   0.802   3.847   7.328
 1271TIP3    H114636   0.749   3.928   7.346
 1271TIP3    H214637   0.744   3.781   7.370
 1272TIP3   OH214638   0.893   4.279   7.743
 1272TIP3    H114639   0.852   4.263   7.830
 1272TIP3    H214640   0.836   4.220   7.689
 1273TIP3   OH214641   1.214   4.237   7.658
 1273TIP3    H114642   1.119   4.252   7.666
 1273TIP3    H214643   1.230   4.172   7.729
 1274TIP3   OH214644   1.314   4.075   7.858
 1274TIP3    H114645   1.311   3.978   7.841
 1274TIP3    H214646   1.317   4.079   7.955
 1275TIP3   OH214647   0.308   4.174   7.773
 1275TIP3    H114648   0.317   4.096   7.715
 1275TIP3    H214649   0.271   4.137   7.855
 1276TIP3   OH214650   0.730   3.752   7.711
 1276TIP3    H114651   0.806   3.699   7.683
 1276TIP3    H214652   0.672   3.739   7.632
 1277TIP3   OH214653   0.795   3.898   7.925
 1277TIP3    H114654   0.772   3.832   7.856
 1277TIP3    H214655   0.771   3.976   7.871
 1278TIP3   OH214656   0.146   4.971   6.191
 1278TIP3    H114657   0.215   5.041   6.179
 1278TIP3    H214658   0.116   4.967   6.099
 1279TIP3   OH214659   1.699   5.065   7.893
 1279TIP3    H114660   1.611   5.025   7.900
 1279TIP3    H214661   1.679   5.160   7.891
 1280TIP3   OH214662   1.761   4.898   6.460
 1280TIP3    H114663   1.846   4.900   6.415
 1280TIP3    H214664   1.784   4.854   6.545
 1281TIP3   OH214665   1.840   4.753   6.668
 1281TIP3    H114666   1.769   4.687   6.682
 1281TIP3    H214667   1.910   4.723   6.730
 1282TIP3   OH214668   1.751   5.003   7.061
 1282TIP3    H114669   1.808   4.934   7.024
 1282TIP3    H214670   1.813   5.078   7.072
 1283TIP3   OH214671   1.653   4.546   6.684
 1283TIP3    H114672   1.676   4.452   6.679
 1283TIP3    H214673   1.616   4.552   6.775
 1284TIP3   OH214674   0.169   4.820   7.043
 1284TIP3    H114675   0.204   4.795   6.955
 1284TIP3    H214676   0.227   4.770   7.105
 1285TIP3   OH214677   1.698   4.707   7.605
 1285TIP3    H114678   1.740   4.623   7.630
 1285TIP3    H214679   1.775   4.760   7.579
 1286TIP3   OH214680   1.792   4.444   7.655
 1286TIP3    H114681   1.702   4.408   7.643
 1286TIP3    H214682   1.849   4.364   7.654
 1287TIP3   OH214683   1.557   4.078   6.074
 1287TIP3    H114684   1.652   4.055   6.090
 1287TIP3    H214685   1.531   4.011   6.009
 1288TIP3   OH214686   1.667   4.369   7.074
 1288TIP3    H114687   1.766   4.377   7.078
 1288TIP3    H214688   1.651   4.390   7.169
 1289TIP3   OH214689   1.668   4.459   7.325
 1289TIP3    H114690   1.583   4.484   7.364
 1289TIP3    H214691   1.709   4.546   7.306
 1290TIP3   OH214692   0.046   4.267   7.705
 1290TIP3    H114693   0.143   4.263   7.717
 1290TIP3    H214694   0.017   4.207   7.776
 1291TIP3   OH214695   1.911   3.879   7.905
 1291TIP3    H114696   1.945   3.800   7.860
 1291TIP3    H214697   1.887   3.935   7.827
 1292TIP3   OH214698   1.640   3.977   6.479
 1292TIP3    H114699   1.671   3.930   6.559
 1292TIP3    H214700   1.549   3.943   6.471
 1293TIP3   OH214701   0.162   4.118   7.032
 1293TIP3    H114702   0.209   4.033   7.024
 1293TIP3    H214703   0.236   4.181   7.025
 1294TIP3   OH214704   0.046   4.416   7.082
 1294TIP3    H114705   0.089   4.337   7.045
 1294TIP3    H214706   0.121   4.478   7.085
 1295TIP3   OH214707   1.812   3.998   7.681
 1295TIP3    H114708   1.735   4.055   7.702
 1295TIP3    H214709   1.782   3.959   7.597
 1296TIP3   OH214710   1.817   4.051   6.148
 1296TIP3    H114711   1.854   3.964   6.124
 1296TIP3    H214712   1.891   4.091   6.198
 1297TIP3   OH214713   0.051   4.034   6.479
 1297TIP3    H114714  -0.044   4.027   6.464
 1297TIP3    H214715   0.084   3.995   6.396
 1298TIP3   OH214716   0.059   3.868   7.320
 1298TIP3    H114717   0.071   3.948   7.373
 1298TIP3    H214718   0.011   3.907   7.244
 1299TIP3   OH214719   1.721   3.829   7.492
 1299TIP3    H114720   1.623   3.836   7.495
 1299TIP3    H214721   1.734   3.734   7.473
 1300TIP3   OH214722   1.052   3.917   6.890
 1300TIP3    H114723   0.965   3.903   6.932
 1300TIP3    H214724   1.095   3.830   6.904
 1301TIP3   OH214725   1.589   3.872   6.942
 1301TIP3    H114726   1.648   3.889   6.864
 1301TIP3    H214727   1.504   3.858   6.895
 1302TIP3   OH214728   1.750   3.919   6.729
 1302TIP3    H114729   1.817   3.862   6.686
 1302TIP3    H214730   1.803   4.001   6.747
 1303TIP3   OH214731   0.317   3.822   6.695
 1303TIP3    H114732   0.236   3.818   6.639
 1303TIP3    H214733   0.349   3.729   6.684
 1304TIP3   OH214734   0.759   3.860   6.665
 1304TIP3    H114735   0.845   3.900   6.643
 1304TIP3    H214736   0.755   3.865   6.762
 1305TIP3   OH214737   1.348   3.828   6.772
 1305TIP3    H114738   1.292   3.877   6.709
 1305TIP3    H214739   1.283   3.761   6.804
 1306TIP3   OH214740   1.397   3.818   6.330
 1306TIP3    H114741   1.360   3.792   6.243
 1306TIP3    H214742   1.367   3.741   6.384
 1307TIP3   OH214743   0.836   4.088   6.361
 1307TIP3    H114744   0.877   4.015   6.411
 1307TIP3    H214745   0.844   4.160   6.426
 1308TIP3   OH214746   0.294   3.922   7.586
 1308TIP3    H114747   0.225   3.870   7.630
 1308TIP3    H214748   0.373   3.891   7.637
 1309TIP3   OH214749   0.453   3.840   7.784
 1309TIP3    H114750   0.545   3.813   7.769
 1309TIP3    H214751   0.426   3.778   7.856
 1310TIP3   OH214752   1.324   3.795   7.820
 1310TIP3    H114753   1.328   3.755   7.907
 1310TIP3    H214754   1.411   3.768   7.782
 1311TIP3   OH214755   3.109   4.747   6.670
 1311TIP3    H114756   3.108   4.843   6.661
 1311TIP3    H214757   3.054   4.737   6.748
 1312TIP3   OH214758   2.960   4.716   7.028
 1312TIP3    H114759   2.984   4.669   7.111
 1312TIP3    H214760   2.903   4.652   6.984
 1313TIP3   OH214761   2.214   4.647   7.200
 1313TIP3    H114762   2.219   4.559   7.242
 1313TIP3    H214763   2.303   4.683   7.215
 1314TIP3   OH214764   3.299   5.002   6.880
 1314TIP3    H114765   3.327   4.926   6.933
 1314TIP3    H214766   3.363   5.069   6.911
 1315TIP3   OH214767   2.302   5.074   7.044
 1315TIP3    H114768   2.257   4.991   7.019
 1315TIP3    H214769   2.388   5.065   6.997
 1316TIP3   OH214770   1.994   4.445   6.576
 1316TIP3    H114771   1.961   4.535   6.591
 1316TIP3    H214772   1.935   4.412   6.505
 1317TIP3   OH214773   2.030   4.687   6.844
 1317TIP3    H114774   2.049   4.594   6.867
 1317TIP3    H214775   2.119   4.727   6.844
 1318TIP3   OH214776   2.772   4.944   7.122
 1318TIP3    H114777   2.832   4.886   7.073
 1318TIP3    H214778   2.840   4.984   7.181
 1319TIP3   OH214779   3.658   4.099   7.081
 1319TIP3    H114780   3.667   4.156   7.160
 1319TIP3    H214781   3.741   4.120   7.035
 1320TIP3   OH214782   3.172   4.388   7.122
 1320TIP3    H114783   3.193   4.299   7.155
 1320TIP3    H214784   3.174   4.372   7.026
 1321TIP3   OH214785   2.463   4.144   6.799
 1321TIP3    H114786   2.452   4.232   6.757
 1321TIP3    H214787   2.399   4.093   6.745
 1322TIP3   OH214788   3.232   4.159   6.662
 1322TIP3    H114789   3.250   4.139   6.756
 1322TIP3    H214790   3.317   4.199   6.637
 1323TIP3   OH214791   2.112   4.435   6.906
 1323TIP3    H114792   2.171   4.384   6.965
 1323TIP3    H214793   2.130   4.393   6.820
 1324TIP3   OH214794   2.543   4.568   6.829
 1324TIP3    H114795   2.637   4.543   6.834
 1324TIP3    H214796   2.507   4.503   6.765
 1325TIP3   OH214797   3.705   4.239   7.360
 1325TIP3    H114798   3.652   4.322   7.363
 1325TIP3    H214799   3.738   4.235   7.451
 1326TIP3   OH214800   2.375   4.070   7.217
 1326TIP3    H114801   2.339   4.123   7.143
 1326TIP3    H214802   2.304   4.086   7.281
 1327TIP3   OH214803   3.013   5.020   6.578
 1327TIP3    H114804   2.917   5.004   6.577
 1327TIP3    H214805   3.012   5.114   6.599
 1328TIP3   OH214806   2.554   4.875   7.237
 1328TIP3    H114807   2.501   4.958   7.244
 1328TIP3    H214808   2.634   4.909   7.190
 1329TIP3   OH214809   3.393   4.130   6.908
 1329TIP3    H114810   3.388   4.070   6.983
 1329TIP3    H214811   3.487   4.154   6.913
 1330TIP3   OH214812   2.299   4.256   7.035
 1330TIP3    H114813   2.357   4.323   7.080
 1330TIP3    H214814   2.347   4.241   6.952
 1331TIP3   OH214815   2.435   5.110   7.298
 1331TIP3    H114816   2.391   5.135   7.215
 1331TIP3    H214817   2.353   5.092   7.350
 1332TIP3   OH214818   2.032   5.099   6.430
 1332TIP3    H114819   2.041   5.164   6.360
 1332TIP3    H214820   1.948   5.121   6.473
 1333TIP3   OH214821   3.338   5.120   7.215
 1333TIP3    H114822   3.267   5.133   7.150
 1333TIP3    H214823   3.395   5.197   7.198
 1334TIP3   OH214824   3.434   3.993   7.199
 1334TIP3    H114825   3.350   4.021   7.157
 1334TIP3    H214826   3.503   4.030   7.141
 1335TIP3   OH214827   2.690   3.816   6.974
 1335TIP3    H114828   2.675   3.720   6.972
 1335TIP3    H214829   2.597   3.845   6.992
 1336TIP3   OH214830   3.350   5.167   6.654
 1336TIP3    H114831   3.382   5.149   6.564
 1336TIP3    H214832   3.327   5.078   6.685
 1337TIP3   OH214833   3.474   5.035   7.451
 1337TIP3    H114834   3.506   4.969   7.385
 1337TIP3    H214835   3.418   5.087   7.391
 1338TIP3   OH214836   3.721   4.659   7.242
 1338TIP3    H114837   3.657   4.728   7.268
 1338TIP3    H214838   3.781   4.710   7.185
 1339TIP3   OH214839   3.282   4.539   7.407
 1339TIP3    H114840   3.249   4.620   7.450
 1339TIP3    H214841   3.249   4.557   7.317
 1340TIP3   OH214842   2.474   4.784   6.684
 1340TIP3    H114843   2.397   4.765   6.627
 1340TIP3    H214844   2.488   4.702   6.735
 1341TIP3   OH214845   2.553   5.044   6.941
 1341TIP3    H114846   2.598   5.085   6.865
 1341TIP3    H214847   2.628   5.024   7.000
 1342TIP3   OH214848   2.464   4.663   7.070
 1342TIP3    H114849   2.505   4.642   6.983
 1342TIP3    H214850   2.533   4.717   7.114
 1343TIP3   OH214851   2.551   5.012   7.550
 1343TIP3    H114852   2.471   5.056   7.581
 1343TIP3    H214853   2.539   5.015   7.453
 1344TIP3   OH214854   2.285   4.701   7.491
 1344TIP3    H114855   2.272   4.775   7.554
 1344TIP3    H214856   2.194   4.700   7.455
 1345TIP3   OH214857   3.572   3.778   6.348
 1345TIP3    H114858   3.486   3.822   6.358
 1345TIP3    H214859   3.608   3.826   6.271
 1346TIP3   OH214860   1.991   4.947   7.359
 1346TIP3    H114861   1.979   4.938   7.263
 1346TIP3    H214862   2.025   4.857   7.379
 1347TIP3   OH214863   3.417   4.366   7.663
 1347TIP3    H114864   3.363   4.412   7.596
 1347TIP3    H214865   3.416   4.273   7.630
 1348TIP3   OH214866   2.214   5.069   7.437
 1348TIP3    H114867   2.228   5.023   7.523
 1348TIP3    H214868   2.124   5.039   7.413
 1349TIP3   OH214869   2.438   3.885   7.037
 1349TIP3    H114870   2.341   3.891   7.022
 1349TIP3    H214871   2.446   3.950   7.109
 1350TIP3   OH214872   2.927   3.882   7.385
 1350TIP3    H114873   2.954   3.860   7.476
 1350TIP3    H214874   2.828   3.877   7.389
 1351TIP3   OH214875   3.208   4.273   7.456
 1351TIP3    H114876   3.153   4.271   7.538
 1351TIP3    H214877   3.212   4.369   7.439
 1352TIP3   OH214878   2.472   4.415   7.156
 1352TIP3    H114879   2.425   4.424   7.242
 1352TIP3    H214880   2.456   4.506   7.125
 1353TIP3   OH214881   2.441   4.374   6.656
 1353TIP3    H114882   2.347   4.344   6.644
 1353TIP3    H214883   2.488   4.332   6.582
 1354TIP3   OH214884   3.009   4.425   6.501
 1354TIP3    H114885   3.069   4.493   6.534
 1354TIP3    H214886   3.069   4.375   6.442
 1355TIP3   OH214887   2.899   4.520   7.689
 1355TIP3    H114888   2.871   4.428   7.708
 1355TIP3    H214889   2.980   4.526   7.745
 1356TIP3   OH214890   3.174   4.417   6.830
 1356TIP3    H114891   3.169   4.498   6.776
 1356TIP3    H214892   3.163   4.348   6.762
 1357TIP3   OH214893   2.220   4.381   7.299
 1357TIP3    H114894   2.249   4.418   7.385
 1357TIP3    H214895   2.173   4.300   7.327
 1358TIP3   OH214896   1.918   4.125   6.747
 1358TIP3    H114897   2.006   4.143   6.780
 1358TIP3    H214898   1.934   4.111   6.652
 1359TIP3   OH214899   2.011   4.197   6.273
 1359TIP3    H114900   2.047   4.251   6.199
 1359TIP3    H214901   1.954   4.268   6.311
 1360TIP3   OH214902   3.028   4.577   7.254
 1360TIP3    H114903   3.091   4.516   7.210
 1360TIP3    H214904   2.972   4.513   7.305
 1361TIP3   OH214905   2.751   4.149   6.793
 1361TIP3    H114906   2.654   4.138   6.787
 1361TIP3    H214907   2.765   4.130   6.887
 1362TIP3   OH214908   2.191   4.283   6.662
 1362TIP3    H114909   2.109   4.324   6.625
 1362TIP3    H214910   2.200   4.195   6.618
 1363TIP3   OH214911   3.188   4.064   7.110
 1363TIP3    H114912   3.103   4.072   7.155
 1363TIP3    H214913   3.160   4.026   7.023
 1364TIP3   OH214914   2.245   4.924   7.653
 1364TIP3    H114915   2.322   4.920   7.714
 1364TIP3    H214916   2.173   4.928   7.718
 1365TIP3   OH214917   2.801   4.486   6.910
 1365TIP3    H114918   2.885   4.440   6.895
 1365TIP3    H214919   2.762   4.430   6.978
 1366TIP3   OH214920   2.295   4.041   6.613
 1366TIP3    H114921   2.248   3.964   6.655
 1366TIP3    H214922   2.361   3.991   6.561
 1367TIP3   OH214923   2.698   4.267   7.174
 1367TIP3    H114924   2.615   4.320   7.167
 1367TIP3    H214925   2.759   4.324   7.224
 1368TIP3   OH214926   2.701   4.834   6.399
 1368TIP3    H114927   2.674   4.917   6.352
 1368TIP3    H214928   2.689   4.866   6.491
 1369TIP3   OH214929   3.531   4.849   7.260
 1369TIP3    H114930   3.572   4.906   7.191
 1369TIP3    H214931   3.439   4.842   7.226
 1370TIP3   OH214932   2.857   4.960   7.435
 1370TIP3    H114933   2.921   4.955   7.507
 1370TIP3    H214934   2.824   5.051   7.442
 1371TIP3   OH214935   3.265   4.416   6.401
 1371TIP3    H114936   3.333   4.372   6.455
 1371TIP3    H214937   3.285   4.389   6.312
 1372TIP3   OH214938   2.291   4.827   6.905
 1372TIP3    H114939   2.362   4.854   6.843
 1372TIP3    H214940   2.334   4.764   6.966
 1373TIP3   OH214941   2.023   4.691   7.444
 1373TIP3    H114942   2.018   4.669   7.541
 1373TIP3    H214943   1.946   4.646   7.407
 1374TIP3   OH214944   2.643   4.638   7.620
 1374TIP3    H114945   2.649   4.653   7.523
 1374TIP3    H214946   2.695   4.557   7.628
 1375TIP3   OH214947   3.122   5.138   7.538
 1375TIP3    H114948   3.059   5.200   7.497
 1375TIP3    H214949   3.143   5.186   7.620
 1376TIP3   OH214950   3.616   4.388   6.269
 1376TIP3    H114951   3.574   4.430   6.191
 1376TIP3    H214952   3.672   4.465   6.292
 1377TIP3   OH214953   3.730   4.982   7.577
 1377TIP3    H114954   3.636   4.979   7.552
 1377TIP3    H214955   3.776   4.974   7.491
 1378TIP3   OH214956   3.295   4.746   7.088
 1378TIP3    H114957   3.217   4.763   7.034
 1378TIP3    H214958   3.338   4.670   7.042
 1379TIP3   OH214959   2.433   5.195   6.695
 1379TIP3    H114960   2.504   5.243   6.647
 1379TIP3    H214961   2.403   5.264   6.755
 1380TIP3   OH214962   2.647   4.987   6.631
 1380TIP3    H114963   2.569   5.040   6.606
 1380TIP3    H214964   2.603   4.918   6.684
 1381TIP3   OH214965   3.027   4.967   7.221
 1381TIP3    H114966   2.991   4.940   7.308
 1381TIP3    H214967   3.101   4.906   7.210
 1382TIP3   OH214968   2.163   4.131   7.422
 1382TIP3    H114969   2.096   4.175   7.476
 1382TIP3    H214970   2.200   4.069   7.487
 1383TIP3   OH214971   2.723   4.998   5.988
 1383TIP3    H114972   2.651   4.935   5.979
 1383TIP3    H214973   2.677   5.075   6.027
 1384TIP3   OH214974   2.626   5.102   6.345
 1384TIP3    H114975   2.656   5.185   6.385
 1384TIP3    H214976   2.630   5.126   6.251
 1385TIP3   OH214977   2.322   4.912   6.404
 1385TIP3    H114978   2.228   4.930   6.421
 1385TIP3    H214979   2.322   4.910   6.307
 1386TIP3   OH214980   2.981   4.151   7.371
 1386TIP3    H114981   3.074   4.164   7.398
 1386TIP3    H214982   2.968   4.054   7.382
 1387TIP3   OH214983   3.059   4.088   6.465
 1387TIP3    H114984   3.105   4.024   6.408
 1387TIP3    H214985   3.131   4.108   6.530
 1388TIP3   OH214986   2.770   4.288   6.508
 1388TIP3    H114987   2.858   4.333   6.505
 1388TIP3    H214988   2.774   4.242   6.593
 1389TIP3   OH214989   2.891   4.416   7.425
 1389TIP3    H114990   2.893   4.456   7.516
 1389TIP3    H214991   2.915   4.322   7.440
 1390TIP3   OH214992   2.889   3.962   6.632
 1390TIP3    H114993   2.849   4.024   6.697
 1390TIP3    H214994   2.958   4.019   6.588
 1391TIP3   OH214995   3.449   4.147   7.480
 1391TIP3    H114996   3.356   4.170   7.457
 1391TIP3    H214997   3.489   4.128   7.394
 1392TIP3   OH214998   3.398   4.534   6.939
 1392TIP3    H114999   3.327   4.470   6.922
 1392TIP3    H215000   3.461   4.482   6.994
 1393TIP3   OH215001   2.289   5.161   6.182
 1393TIP3    H115002   2.333   5.210   6.253
 1393TIP3    H215003   2.368   5.128   6.136
 1394TIP3   OH215004   2.067   4.396   6.085
 1394TIP3    H115005   2.145   4.452   6.066
 1394TIP3    H215006   1.995   4.456   6.062
 1395TIP3   OH215007   2.181   3.866   6.994
 1395TIP3    H115008   2.188   3.847   6.898
 1395TIP3    H215009   2.145   3.781   7.025
 1396TIP3   OH215010   2.039   4.945   7.845
 1396TIP3    H115011   2.018   4.870   7.902
 1396TIP3    H215012   1.968   4.931   7.779
 1397TIP3   OH215013   2.433   4.916   5.994
 1397TIP3    H115014   2.372   4.867   6.053
 1397TIP3    H215015   2.482   4.840   5.953
 1398TIP3   OH215016   2.718   4.905   7.724
 1398TIP3    H115017   2.683   4.953   7.645
 1398TIP3    H215018   2.738   4.820   7.682
 1399TIP3   OH215019   3.032   4.939   5.976
 1399TIP3    H115020   3.050   5.026   6.021
 1399TIP3    H215021   2.938   4.948   5.957
 1400TIP3   OH215022   3.237   4.903   7.498
 1400TIP3    H115023   3.321   4.952   7.490
 1400TIP3    H215024   3.175   4.980   7.498
 1401TIP3   OH215025   2.083   4.664   7.696
 1401TIP3    H115026   2.172   4.627   7.696
 1401TIP3    H215027   2.054   4.633   7.784
 1402TIP3   OH215028   2.447   4.520   7.396
 1402TIP3    H115029   2.384   4.582   7.442
 1402TIP3    H215030   2.524   4.577   7.381
 1403TIP3   OH215031   3.048   4.813   7.822
 1403TIP3    H115032   3.114   4.754   7.782
 1403TIP3    H215033   2.975   4.754   7.841
 1404TIP3   OH215034   2.568   4.342   7.567
 1404TIP3    H115035   2.584   4.255   7.526
 1404TIP3    H215036   2.542   4.397   7.490
 1405TIP3   OH215037   2.612   4.110   7.375
 1405TIP3    H115038   2.665   4.162   7.310
 1405TIP3    H215039   2.527   4.099   7.328
 1406TIP3   OH215040   2.698   4.679   7.356
 1406TIP3    H115041   2.786   4.702   7.323
 1406TIP3    H215042   2.645   4.754   7.320
 1407TIP3   OH215043   3.122   4.478   7.853
 1407TIP3    H115044   3.131   4.382   7.851
 1407TIP3    H215045   3.216   4.501   7.853
 1408TIP3   OH215046   3.311   4.687   7.678
 1408TIP3    H115047   3.284   4.763   7.623
 1408TIP3    H215048   3.405   4.676   7.654
 1409TIP3   OH215049   2.377   4.440   7.858
 1409TIP3    H115050   2.319   4.364   7.837
 1409TIP3    H215051   2.415   4.458   7.770
 1410TIP3   OH215052   2.672   3.854   7.339
 1410TIP3    H115053   2.639   3.944   7.361
 1410TIP3    H215054   2.590   3.810   7.315
 1411TIP3   OH215055   2.815   4.257   7.767
 1411TIP3    H115056   2.770   4.248   7.853
 1411TIP3    H215057   2.744   4.223   7.710
 1412TIP3   OH215058   3.081   4.228   7.693
 1412TIP3    H115059   2.988   4.228   7.724
 1412TIP3    H215060   3.122   4.162   7.753
 1413TIP3   OH215061   3.201   4.053   7.876
 1413TIP3    H115062   3.200   3.957   7.852
 1413TIP3    H215063   3.208   4.050   7.973
 1414TIP3   OH215064   2.182   4.152   7.779
 1414TIP3    H115065   2.163   4.071   7.728
 1414TIP3    H215066   2.210   4.113   7.864
 1415TIP3   OH215067   2.629   3.766   7.668
 1415TIP3    H115068   2.690   3.692   7.682
 1415TIP3    H215069   2.632   3.770   7.572
 1416TIP3   OH215070   2.688   3.917   7.935
 1416TIP3    H115071   2.682   3.852   7.865
 1416TIP3    H215072   2.644   3.990   7.886
 1417TIP3   OH215073   2.157   4.920   6.179
 1417TIP3    H115074   2.176   5.017   6.174
 1417TIP3    H215075   2.080   4.906   6.122
 1418TIP3   OH215076   3.581   5.081   7.876
 1418TIP3    H115077   3.497   5.032   7.885
 1418TIP3    H215078   3.557   5.167   7.911
 1419TIP3   OH215079   3.697   4.897   6.442
 1419TIP3    H115080   3.765   4.966   6.438
 1419TIP3    H215081   3.712   4.857   6.530
 1420TIP3   OH215082   3.715   4.725   6.647
 1420TIP3    H115083   3.644   4.658   6.648
 1420TIP3    H215084   3.775   4.692   6.716
 1421TIP3   OH215085   3.635   4.978   7.056
 1421TIP3    H115086   3.679   4.904   7.013
 1421TIP3    H215087   3.703   5.048   7.055
 1422TIP3   OH215088   3.709   4.650   6.289
 1422TIP3    H115089   3.641   4.690   6.234
 1422TIP3    H215090   3.722   4.725   6.352
 1423TIP3   OH215091   3.522   4.534   6.667
 1423TIP3    H115092   3.524   4.439   6.650
 1423TIP3    H215093   3.488   4.538   6.758
 1424TIP3   OH215094   2.012   4.791   7.098
 1424TIP3    H115095   2.000   4.743   7.013
 1424TIP3    H215096   2.098   4.752   7.129
 1425TIP3   OH215097   3.599   4.715   7.604
 1425TIP3    H115098   3.633   4.624   7.620
 1425TIP3    H215099   3.681   4.765   7.592
 1426TIP3   OH215100   3.677   4.447   7.644
 1426TIP3    H115101   3.587   4.410   7.637
 1426TIP3    H215102   3.734   4.366   7.644
 1427TIP3   OH215103   3.474   4.282   6.549
 1427TIP3    H115104   3.521   4.196   6.563
 1427TIP3    H215105   3.518   4.307   6.466
 1428TIP3   OH215106   3.570   4.383   7.084
 1428TIP3    H115107   3.667   4.395   7.068
 1428TIP3    H215108   3.573   4.393   7.181
 1429TIP3   OH215109   3.544   4.456   7.337
 1429TIP3    H115110   3.447   4.468   7.350
 1429TIP3    H215111   3.579   4.547   7.338
 1430TIP3   OH215112   1.955   4.223   7.632
 1430TIP3    H115113   2.031   4.235   7.692
 1430TIP3    H215114   1.922   4.135   7.661
 1431TIP3   OH215115   3.783   3.878   7.914
 1431TIP3    H115116   3.819   3.809   7.855
 1431TIP3    H215117   3.750   3.941   7.846
 1432TIP3   OH215118   3.543   4.027   6.497
 1432TIP3    H115119   3.552   3.966   6.573
 1432TIP3    H215120   3.454   4.007   6.465
 1433TIP3   OH215121   2.074   4.107   7.056
 1433TIP3    H115122   2.108   4.020   7.026
 1433TIP3    H215123   2.154   4.165   7.054
 1434TIP3   OH215124   1.930   4.413   7.099
 1434TIP3    H115125   1.977   4.374   7.023
 1434TIP3    H215126   2.001   4.466   7.137
 1435TIP3   OH215127   3.675   4.011   7.716
 1435TIP3    H115128   3.596   4.067   7.734
 1435TIP3    H215129   3.658   3.986   7.623
 1436TIP3   OH215130   1.927   4.052   6.483
 1436TIP3    H115131   1.832   4.055   6.464
 1436TIP3    H215132   1.966   4.092   6.403
 1437TIP3   OH215133   1.897   3.905   7.311
 1437TIP3    H115134   1.849   3.868   7.388
 1437TIP3    H215135   1.922   3.992   7.346
 1438TIP3   OH215136   3.614   3.833   7.501
 1438TIP3    H115137   3.551   3.845   7.429
 1438TIP3    H215138   3.642   3.742   7.480
 1439TIP3   OH215139   2.996   3.966   6.936
 1439TIP3    H115140   2.909   3.982   6.974
 1439TIP3    H215141   2.974   3.904   6.865
 1440TIP3   OH215142   3.475   3.813   6.924
 1440TIP3    H115143   3.524   3.879   6.869
 1440TIP3    H215144   3.384   3.825   6.887
 1441TIP3   OH215145   3.629   3.949   6.740
 1441TIP3    H115146   3.691   3.880   6.708
 1441TIP3    H215147   3.695   4.020   6.758
 1442TIP3   OH215148   2.175   3.822   6.711
 1442TIP3    H115149   2.083   3.808   6.679
 1442TIP3    H215150   2.214   3.733   6.695
 1443TIP3   OH215151   2.051   3.824   6.266
 1443TIP3    H115152   2.084   3.883   6.195
 1443TIP3    H215153   2.018   3.887   6.332
 1444TIP3   OH215154   2.569   3.818   6.696
 1444TIP3    H115155   2.663   3.818   6.676
 1444TIP3    H215156   2.566   3.873   6.776
 1445TIP3   OH215157   3.222   3.841   6.832
 1445TIP3    H115158   3.194   3.858   6.741
 1445TIP3    H215159   3.158   3.774   6.861
 1446TIP3   OH215160   3.260   3.851   6.397
 1446TIP3    H115161   3.238   3.823   6.306
 1446TIP3    H215162   3.246   3.769   6.448
 1447TIP3   OH215163   2.207   3.982   6.113
 1447TIP3    H115164   2.253   3.897   6.103
 1447TIP3    H215165   2.262   4.032   6.174
 1448TIP3   OH215166   2.725   4.017   6.411
 1448TIP3    H115167   2.774   3.980   6.487
 1448TIP3    H215168   2.761   4.108   6.409
 1449TIP3   OH215169   2.158   3.906   7.654
 1449TIP3    H115170   2.112   3.820   7.663
 1449TIP3    H215171   2.244   3.890   7.700
 1450TIP3   OH215172   2.370   3.842   7.834
 1450TIP3    H115173   2.450   3.815   7.787
 1450TIP3    H215174   2.328   3.756   7.852
 1451TIP3   OH215175   3.209   3.791   7.830
 1451TIP3    H115176   3.217   3.761   7.923
 1451TIP3    H215177   3.300   3.773   7.797
 1452TIP3   OH215178   4.976   4.805   6.640
 1452TIP3    H115179   5.000   4.881   6.696
 1452TIP3    H215180   4.888   4.833   6.613
 1453TIP3   OH215181   4.845   4.699   7.038
 1453TIP3    H115182   4.848   4.652   7.124
 1453TIP3    H215183   4.834   4.630   6.971
 1454TIP3   OH215184   4.093   4.660   7.182
 1454TIP3    H115185   4.091   4.568   7.212
 1454TIP3    H215186   4.186   4.682   7.193
 1455TIP3   OH215187   4.199   5.057   7.075
 1455TIP3    H115188   4.176   4.964   7.053
 1455TIP3    H215189   4.278   5.068   7.018
 1456TIP3   OH215190   3.874   4.486   6.545
 1456TIP3    H115191   3.844   4.579   6.540
 1456TIP3    H215192   3.826   4.444   6.472
 1457TIP3   OH215193   3.960   4.707   6.818
 1457TIP3    H115194   4.001   4.619   6.836
 1457TIP3    H215195   4.037   4.766   6.832
 1458TIP3   OH215196   4.679   4.956   7.143
 1458TIP3    H115197   4.710   4.925   7.057
 1458TIP3    H215198   4.761   4.948   7.196
 1459TIP3   OH215199   4.986   4.339   7.082
 1459TIP3    H115200   5.083   4.357   7.084
 1459TIP3    H215201   4.960   4.395   7.007
 1460TIP3   OH215202   4.326   4.181   6.795
 1460TIP3    H115203   4.330   4.254   6.729
 1460TIP3    H215204   4.293   4.111   6.736
 1461TIP3   OH215205   5.033   4.213   6.720
 1461TIP3    H115206   5.100   4.147   6.748
 1461TIP3    H215207   5.093   4.287   6.696
 1462TIP3   OH215208   4.065   4.470   6.872
 1462TIP3    H115209   4.112   4.405   6.928
 1462TIP3    H215210   4.032   4.418   6.797
 1463TIP3   OH215211   4.417   4.557   6.817
 1463TIP3    H115212   4.503   4.527   6.854
 1463TIP3    H215213   4.394   4.482   6.760
 1464TIP3   OH215214   4.240   4.097   7.225
 1464TIP3    H115215   4.213   4.148   7.146
 1464TIP3    H215216   4.160   4.110   7.281
 1465TIP3   OH215217   4.929   5.119   6.618
 1465TIP3    H115218   4.928   5.084   6.526
 1465TIP3    H215219   4.884   5.206   6.610
 1466TIP3   OH215220   4.446   4.873   7.230
 1466TIP3    H115221   4.396   4.954   7.255
 1466TIP3    H215222   4.528   4.914   7.192
 1467TIP3   OH215223   4.194   4.279   7.012
 1467TIP3    H115224   4.251   4.341   7.064
 1467TIP3    H215225   4.253   4.255   6.937
 1468TIP3   OH215226   4.303   5.097   7.319
 1468TIP3    H115227   4.258   5.103   7.232
 1468TIP3    H215228   4.220   5.090   7.374
 1469TIP3   OH215229   3.921   5.073   6.434
 1469TIP3    H115230   3.927   5.006   6.362
 1469TIP3    H215231   3.932   5.152   6.377
 1470TIP3   OH215232   4.611   3.805   6.967
 1470TIP3    H115233   4.591   3.710   6.975
 1470TIP3    H215234   4.536   3.842   7.020
 1471TIP3   OH215235   4.814   4.662   6.380
 1471TIP3    H115236   4.764   4.747   6.382
 1471TIP3    H215237   4.897   4.690   6.337
 1472TIP3   OH215238   4.865   4.434   6.178
 1472TIP3    H115239   4.890   4.528   6.182
 1472TIP3    H215240   4.846   4.424   6.083
 1473TIP3   OH215241   0.012   4.672   6.551
 1473TIP3    H115242  -0.064   4.719   6.593
 1473TIP3    H215243   0.071   4.748   6.534
 1474TIP3   OH215244   5.129   4.483   7.443
 1474TIP3    H115245   5.089   4.481   7.531
 1474TIP3    H215246   5.068   4.540   7.391
 1475TIP3   OH215247   4.377   4.773   6.672
 1475TIP3    H115248   4.334   4.728   6.599
 1475TIP3    H215249   4.413   4.698   6.724
 1476TIP3   OH215250   4.450   5.029   6.953
 1476TIP3    H115251   4.460   5.093   6.879
 1476TIP3    H215252   4.519   5.055   7.016
 1477TIP3   OH215253   4.364   4.675   7.069
 1477TIP3    H115254   4.412   4.666   6.984
 1477TIP3    H215255   4.410   4.750   7.113
 1478TIP3   OH215256   4.441   5.021   7.553
 1478TIP3    H115257   4.375   5.070   7.604
 1478TIP3    H215258   4.400   5.021   7.464
 1479TIP3   OH215259   5.105   4.657   6.287
 1479TIP3    H115260   5.154   4.690   6.365
 1479TIP3    H215261   5.141   4.713   6.217
 1480TIP3   OH215262   4.159   4.735   7.469
 1480TIP3    H115263   4.139   4.796   7.543
 1480TIP3    H215264   4.068   4.711   7.443
 1481TIP3   OH215265   3.873   4.945   7.354
 1481TIP3    H115266   3.848   4.937   7.260
 1481TIP3    H215267   3.902   4.853   7.374
 1482TIP3   OH215268   4.072   5.090   7.456
 1482TIP3    H115269   4.092   5.034   7.534
 1482TIP3    H215270   3.999   5.038   7.414
 1483TIP3   OH215271   4.383   3.912   7.080
 1483TIP3    H115272   4.297   3.907   7.033
 1483TIP3    H215273   4.366   3.991   7.134
 1484TIP3   OH215274   4.819   3.864   7.411
 1484TIP3    H115275   4.858   3.839   7.497
 1484TIP3    H215276   4.724   3.855   7.431
 1485TIP3   OH215277   5.177   4.189   7.446
 1485TIP3    H115278   5.155   4.205   7.541
 1485TIP3    H215279   5.174   4.281   7.414
 1486TIP3   OH215280   4.750   4.149   6.195
 1486TIP3    H115281   4.697   4.129   6.275
 1486TIP3    H215282   4.713   4.088   6.129
 1487TIP3   OH215283   4.353   4.425   7.160
 1487TIP3    H115284   4.308   4.429   7.247
 1487TIP3    H215285   4.348   4.519   7.131
 1488TIP3   OH215286   4.342   4.364   6.600
 1488TIP3    H115287   4.247   4.346   6.586
 1488TIP3    H215288   4.386   4.342   6.515
 1489TIP3   OH215289   4.914   4.525   6.588
 1489TIP3    H115290   4.867   4.597   6.542
 1489TIP3    H215291   5.006   4.557   6.587
 1490TIP3   OH215292   4.822   4.486   7.640
 1490TIP3    H115293   4.766   4.411   7.671
 1490TIP3    H215294   4.889   4.484   7.713
 1491TIP3   OH215295   4.923   4.458   6.850
 1491TIP3    H115296   4.980   4.506   6.787
 1491TIP3    H215297   4.950   4.366   6.831
 1492TIP3   OH215298   4.108   4.393   7.308
 1492TIP3    H115299   4.158   4.431   7.383
 1492TIP3    H215300   4.075   4.309   7.344
 1493TIP3   OH215301   4.448   4.245   6.060
 1493TIP3    H115302   4.399   4.180   6.114
 1493TIP3    H215303   4.376   4.303   6.031
 1494TIP3   OH215304   3.818   4.134   6.780
 1494TIP3    H115305   3.892   4.125   6.844
 1494TIP3    H215306   3.856   4.120   6.690
 1495TIP3   OH215307   3.940   4.259   6.331
 1495TIP3    H115308   3.958   4.187   6.269
 1495TIP3    H215309   3.845   4.263   6.320
 1496TIP3   OH215310   4.908   4.529   7.276
 1496TIP3    H115311   4.974   4.469   7.236
 1496TIP3    H215312   4.846   4.465   7.317
 1497TIP3   OH215313   4.609   4.189   6.795
 1497TIP3    H115314   4.516   4.193   6.826
 1497TIP3    H215315   4.649   4.128   6.860
 1498TIP3   OH215316   4.073   4.303   6.615
 1498TIP3    H115317   3.997   4.349   6.570
 1498TIP3    H215318   4.052   4.211   6.593
 1499TIP3   OH215319   4.470   4.353   6.358
 1499TIP3    H115320   4.547   4.339   6.414
 1499TIP3    H215321   4.465   4.264   6.314
 1500TIP3   OH215322   5.069   3.978   7.119
 1500TIP3    H115323   5.026   4.063   7.134
 1500TIP3    H215324   5.087   3.982   7.023
 1501TIP3   OH215325   4.117   4.926   7.655
 1501TIP3    H115326   4.196   4.918   7.714
 1501TIP3    H215327   4.047   4.927   7.725
 1502TIP3   OH215328   4.662   4.476   6.900
 1502TIP3    H115329   4.748   4.461   6.855
 1502TIP3    H215330   4.687   4.462   6.992
 1503TIP3   OH215331   4.204   4.016   6.582
 1503TIP3    H115332   4.134   3.961   6.622
 1503TIP3    H215333   4.273   3.950   6.570
 1504TIP3   OH215334   4.552   4.247   7.160
 1504TIP3    H115335   4.479   4.311   7.144
 1504TIP3    H215336   4.615   4.301   7.212
 1505TIP3   OH215337   4.671   4.896   6.392
 1505TIP3    H115338   4.596   4.905   6.331
 1505TIP3    H215339   4.635   4.939   6.473
 1506TIP3   OH215340   5.026   4.206   6.217
 1506TIP3    H115341   4.937   4.167   6.200
 1506TIP3    H215342   5.007   4.299   6.194
 1507TIP3   OH215343   4.839   4.891   7.497
 1507TIP3    H115344   4.824   4.859   7.587
 1507TIP3    H215345   4.806   4.982   7.500
 1508TIP3   OH215346   5.068   4.420   6.393
 1508TIP3    H115347   5.156   4.377   6.384
 1508TIP3    H215348   5.088   4.508   6.352
 1509TIP3   OH215349   4.194   4.833   6.911
 1509TIP3    H115350   4.264   4.871   6.854
 1509TIP3    H215351   4.241   4.755   6.949
 1510TIP3   OH215352   4.889   5.044   6.343
 1510TIP3    H115353   4.849   5.122   6.299
 1510TIP3    H215354   4.811   4.985   6.351
 1511TIP3   OH215355   3.897   4.698   7.447
 1511TIP3    H115356   3.907   4.674   7.542
 1511TIP3    H215357   3.825   4.640   7.417
 1512TIP3   OH215358   4.573   4.613   7.622
 1512TIP3    H115359   4.547   4.640   7.532
 1512TIP3    H215360   4.659   4.567   7.606
 1513TIP3   OH215361   5.028   5.147   7.578
 1513TIP3    H115362   4.949   5.190   7.540
 1513TIP3    H215363   5.033   5.187   7.666
 1514TIP3   OH215364   5.115   4.748   7.136
 1514TIP3    H115365   5.050   4.745   7.064
 1514TIP3    H215366   5.199   4.770   7.091
 1515TIP3   OH215367   4.339   5.158   6.717
 1515TIP3    H115368   4.388   5.238   6.690
 1515TIP3    H215369   4.269   5.155   6.652
 1516TIP3   OH215370   4.541   4.990   6.611
 1516TIP3    H115371   4.502   5.056   6.671
 1516TIP3    H215372   4.513   4.906   6.653
 1517TIP3   OH215373   4.931   4.917   7.237
 1517TIP3    H115374   4.922   4.897   7.333
 1517TIP3    H215375   4.995   4.849   7.206
 1518TIP3   OH215376   5.061   5.029   6.136
 1518TIP3    H115377   5.142   5.077   6.162
 1518TIP3    H215378   5.008   5.045   6.216
 1519TIP3   OH215379   3.999   4.142   7.366
 1519TIP3    H115380   3.918   4.174   7.324
 1519TIP3    H215381   3.965   4.084   7.436
 1520TIP3   OH215382   4.624   5.165   6.107
 1520TIP3    H115383   4.670   5.081   6.087
 1520TIP3    H215384   4.576   5.142   6.188
 1521TIP3   OH215385   4.477   5.175   6.331
 1521TIP3    H115386   4.466   5.190   6.426
 1521TIP3    H215387   4.455   5.263   6.294
 1522TIP3   OH215388   4.843   4.136   7.360
 1522TIP3    H115389   4.936   4.146   7.387
 1522TIP3    H215390   4.831   4.040   7.372
 1523TIP3   OH215391   4.981   4.095   6.483
 1523TIP3    H115392   5.014   4.153   6.412
 1523TIP3    H215393   5.003   4.146   6.565
 1524TIP3   OH215394   4.731   4.298   6.588
 1524TIP3    H115395   4.803   4.336   6.642
 1524TIP3    H215396   4.686   4.246   6.660
 1525TIP3   OH215397   4.732   4.380   7.415
 1525TIP3    H115398   4.785   4.416   7.490
 1525TIP3    H215399   4.769   4.290   7.401
 1526TIP3   OH215400   4.781   3.941   6.625
 1526TIP3    H115401   4.797   3.947   6.722
 1526TIP3    H215402   4.863   3.979   6.589
 1527TIP3   OH215403   4.383   4.103   6.301
 1527TIP3    H115404   4.314   4.099   6.368
 1527TIP3    H215405   4.404   4.010   6.287
 1528TIP3   OH215406   4.204   5.112   6.130
 1528TIP3    H115407   4.264   5.173   6.173
 1528TIP3    H215408   4.262   5.037   6.113
 1529TIP3   OH215409   4.129   3.886   6.990
 1529TIP3    H115410   4.106   3.860   6.898
 1529TIP3    H215411   4.099   3.802   7.034
 1530TIP3   OH215412   3.949   4.932   7.866
 1530TIP3    H115413   3.951   4.849   7.916
 1530TIP3    H215414   3.865   4.921   7.818
 1531TIP3   OH215415   4.597   4.883   7.729
 1531TIP3    H115416   4.573   4.939   7.652
 1531TIP3    H215417   4.610   4.796   7.684
 1532TIP3   OH215418   4.780   4.960   6.056
 1532TIP3    H115419   4.836   5.023   6.008
 1532TIP3    H215420   4.847   4.903   6.095
 1533TIP3   OH215421   5.110   4.832   7.548
 1533TIP3    H115422   5.152   4.893   7.485
 1533TIP3    H215423   5.018   4.861   7.546
 1534TIP3   OH215424   3.977   4.669   7.692
 1534TIP3    H115425   4.066   4.632   7.695
 1534TIP3    H215426   3.940   4.630   7.773
 1535TIP3   OH215427   4.321   4.546   7.398
 1535TIP3    H115428   4.265   4.626   7.410
 1535TIP3    H215429   4.410   4.586   7.384
 1536TIP3   OH215430   4.578   4.583   6.089
 1536TIP3    H115431   4.510   4.569   6.021
 1536TIP3    H215432   4.599   4.493   6.118
 1537TIP3   OH215433   4.921   4.787   7.823
 1537TIP3    H115434   4.990   4.804   7.891
 1537TIP3    H215435   4.937   4.692   7.810
 1538TIP3   OH215436   4.423   4.325   7.564
 1538TIP3    H115437   4.452   4.254   7.504
 1538TIP3    H215438   4.429   4.403   7.508
 1539TIP3   OH215439   4.471   4.082   7.368
 1539TIP3    H115440   4.518   4.127   7.294
 1539TIP3    H215441   4.381   4.072   7.329
 1540TIP3   OH215442   4.566   4.670   7.353
 1540TIP3    H115443   4.649   4.674   7.303
 1540TIP3    H215444   4.514   4.746   7.316
 1541TIP3   OH215445   4.960   4.422   7.857
 1541TIP3    H115446   4.926   4.336   7.829
 1541TIP3    H215447   5.032   4.397   7.917
 1542TIP3   OH215448   4.259   4.418   7.831
 1542TIP3    H115449   4.213   4.332   7.835
 1542TIP3    H215450   4.293   4.416   7.740
 1543TIP3   OH215451   4.543   3.811   7.410
 1543TIP3    H115452   4.508   3.900   7.386
 1543TIP3    H215453   4.523   3.754   7.333
 1544TIP3   OH215454   4.673   4.242   7.751
 1544TIP3    H115455   4.620   4.246   7.832
 1544TIP3    H215456   4.610   4.209   7.685
 1545TIP3   OH215457   4.936   4.172   7.671
 1545TIP3    H115458   4.847   4.168   7.711
 1545TIP3    H215459   4.993   4.122   7.733
 1546TIP3   OH215460   5.106   4.062   7.869
 1546TIP3    H115461   5.096   3.964   7.871
 1546TIP3    H215462   5.102   4.087   7.964
 1547TIP3   OH215463   4.069   4.166   7.797
 1547TIP3    H115464   4.054   4.086   7.742
 1547TIP3    H215465   4.070   4.124   7.885
 1548TIP3   OH215466   4.512   3.746   7.689
 1548TIP3    H115467   4.573   3.671   7.679
 1548TIP3    H215468   4.515   3.782   7.598
 1549TIP3   OH215469   4.580   3.923   7.936
 1549TIP3    H115470   4.563   3.850   7.874
 1549TIP3    H215471   4.530   3.990   7.887
 1550TIP3   OH215472   3.936   4.981   6.155
 1550TIP3    H115473   4.010   5.039   6.129
 1550TIP3    H215474   3.923   4.924   6.077
 1551TIP3   OH215475   3.890   4.792   7.061
 1551TIP3    H115476   3.892   4.741   6.977
 1551TIP3    H215477   3.978   4.766   7.099
 1552TIP3   OH215478   3.829   4.225   7.643
 1552TIP3    H115479   3.924   4.233   7.665
 1552TIP3    H215480   3.803   4.151   7.702
 1553TIP3   OH215481   3.987   4.115   7.002
 1553TIP3    H115482   4.036   4.030   7.006
 1553TIP3    H215483   4.061   4.180   6.995
 1554TIP3   OH215484   3.839   4.414   7.067
 1554TIP3    H115485   3.901   4.378   7.002
 1554TIP3    H215486   3.889   4.488   7.101
 1555TIP3   OH215487   3.824   4.063   6.504
 1555TIP3    H115488   3.727   4.054   6.500
 1555TIP3    H215489   3.846   4.033   6.413
 1556TIP3   OH215490   3.832   3.897   7.316
 1556TIP3    H115491   3.765   3.843   7.361
 1556TIP3    H215492   3.778   3.955   7.259
 1557TIP3   OH215493   4.811   3.960   6.895
 1557TIP3    H115494   4.741   3.899   6.927
 1557TIP3    H215495   4.891   3.905   6.885
 1558TIP3   OH215496   4.061   3.826   6.728
 1558TIP3    H115497   3.966   3.821   6.707
 1558TIP3    H215498   4.093   3.737   6.703
 1559TIP3   OH215499   4.475   3.861   6.678
 1559TIP3    H115500   4.557   3.894   6.636
 1559TIP3    H215501   4.505   3.852   6.770
 1560TIP3   OH215502   5.058   3.862   6.811
 1560TIP3    H115503   5.125   3.840   6.746
 1560TIP3    H215504   5.028   3.770   6.837
 1561TIP3   OH215505   4.646   4.089   6.438
 1561TIP3    H115506   4.694   4.009   6.467
 1561TIP3    H215507   4.667   4.150   6.512
 1562TIP3   OH215508   4.027   3.898   7.705
 1562TIP3    H115509   3.986   3.811   7.719
 1562TIP3    H215510   4.122   3.877   7.724
 1563TIP3   OH215511   4.259   3.809   7.793
 1563TIP3    H115512   4.349   3.800   7.756
 1563TIP3    H215513   4.259   3.734   7.853
 1564TIP3   OH215514   5.084   3.757   7.881
 1564TIP3    H115515   5.103   3.712   7.964
 1564TIP3    H215516   5.172   3.754   7.835
 1565TIP3   OH215517   1.456   1.131   7.851
 1565TIP3    H115518   1.401   1.068   7.803
 1565TIP3    H215519   1.406   1.137   7.934
 1566TIP3   OH215520   0.630   0.324   7.848
 1566TIP3    H115521   0.657   0.343   7.940
 1566TIP3    H215522   0.564   0.394   7.836
 1567TIP3   OH215523   0.817   1.436   7.865
 1567TIP3    H115524   0.814   1.385   7.782
 1567TIP3    H215525   0.782   1.372   7.927
 1568TIP3   OH215526   0.200   0.670   7.962
 1568TIP3    H115527   0.296   0.666   7.943
 1568TIP3    H215528   0.166   0.599   7.903
 1569TIP3   OH215529   1.049   1.641   7.855
 1569TIP3    H115530   0.984   1.569   7.856
 1569TIP3    H215531   1.122   1.596   7.808
 1570TIP3   OH215532   1.471   1.550   7.847
 1570TIP3    H115533   1.498   1.460   7.874
 1570TIP3    H215534   1.538   1.572   7.779
 1571TIP3   OH215535   0.530   1.154   7.818
 1571TIP3    H115536   0.544   1.114   7.907
 1571TIP3    H215537   0.618   1.142   7.776
 1572TIP3   OH215538   1.126   1.300   7.946
 1572TIP3    H115539   1.106   1.265   8.035
 1572TIP3    H215540   1.101   1.222   7.892
 1573TIP3   OH215541   0.778   0.820   7.900
 1573TIP3    H115542   0.725   0.844   7.821
 1573TIP3    H215543   0.862   0.796   7.857
 1574TIP3   OH215544   1.822   1.021   7.815
 1574TIP3    H115545   1.751   0.970   7.771
 1574TIP3    H215546   1.776   1.107   7.827
 1575TIP3   OH215547   1.707   0.663   7.896
 1575TIP3    H115548   1.754   0.705   7.823
 1575TIP3    H215549   1.647   0.605   7.846
 1576TIP3   OH215550   1.553   0.382   7.845
 1576TIP3    H115551   1.577   0.369   7.938
 1576TIP3    H215552   1.469   0.332   7.840
 1577TIP3   OH215553   0.337   1.738   7.922
 1577TIP3    H115554   0.336   1.733   8.019
 1577TIP3    H215555   0.422   1.692   7.906
 1578TIP3   OH215556   3.334   1.138   7.852
 1578TIP3    H115557   3.265   1.080   7.817
 1578TIP3    H215558   3.287   1.170   7.931
 1579TIP3   OH215559   2.486   0.331   7.868
 1579TIP3    H115560   2.537   0.375   7.939
 1579TIP3    H215561   2.442   0.409   7.830
 1580TIP3   OH215562   2.678   1.419   7.870
 1580TIP3    H115563   2.667   1.374   7.785
 1580TIP3    H215564   2.667   1.343   7.929
 1581TIP3   OH215565   2.074   0.671   7.916
 1581TIP3    H115566   2.131   0.654   7.994
 1581TIP3    H215567   1.992   0.623   7.942
 1582TIP3   OH215568   2.867   1.600   7.813
 1582TIP3    H115569   2.822   1.527   7.860
 1582TIP3    H215570   2.959   1.582   7.840
 1583TIP3   OH215571   3.349   1.555   7.867
 1583TIP3    H115572   3.367   1.469   7.908
 1583TIP3    H215573   3.430   1.574   7.815
 1584TIP3   OH215574   2.444   1.175   7.802
 1584TIP3    H115575   2.430   1.132   7.889
 1584TIP3    H215576   2.536   1.151   7.781
 1585TIP3   OH215577   3.035   1.296   7.913
 1585TIP3    H115578   3.058   1.298   8.007
 1585TIP3    H215579   3.026   1.200   7.893
 1586TIP3   OH215580   2.668   0.822   7.908
 1586TIP3    H115581   2.617   0.847   7.829
 1586TIP3    H215582   2.746   0.782   7.864
 1587TIP3   OH215583   3.684   1.017   7.805
 1587TIP3    H115584   3.608   0.982   7.754
 1587TIP3    H215585   3.649   1.104   7.831
 1588TIP3   OH215586   3.554   0.687   7.895
 1588TIP3    H115587   3.612   0.719   7.824
 1588TIP3    H215588   3.522   0.606   7.853
 1589TIP3   OH215589   3.482   0.369   7.849
 1589TIP3    H115590   3.481   0.366   7.947
 1589TIP3    H215591   3.401   0.322   7.827
 1590TIP3   OH215592   2.224   1.703   7.867
 1590TIP3    H115593   2.201   1.715   7.962
 1590TIP3    H215594   2.306   1.650   7.880
 1591TIP3   OH215595   4.389   0.361   7.858
 1591TIP3    H115596   4.425   0.392   7.943
 1591TIP3    H215597   4.341   0.440   7.829
 1592TIP3   OH215598   4.573   1.414   7.887
 1592TIP3    H115599   4.534   1.374   7.806
 1592TIP3    H215600   4.603   1.336   7.934
 1593TIP3   OH215601   3.951   0.662   7.905
 1593TIP3    H115602   4.013   0.659   7.981
 1593TIP3    H215603   3.896   0.584   7.921
 1594TIP3   OH215604   4.778   1.576   7.810
 1594TIP3    H115605   4.720   1.503   7.840
 1594TIP3    H215606   4.862   1.532   7.789
 1595TIP3   OH215607   4.327   1.165   7.787
 1595TIP3    H115608   4.324   1.147   7.883
 1595TIP3    H215609   4.420   1.144   7.765
 1596TIP3   OH215610   4.888   1.291   7.813
 1596TIP3    H115611   4.860   1.278   7.904
 1596TIP3    H215612   4.918   1.199   7.793
 1597TIP3   OH215613   4.532   0.817   7.903
 1597TIP3    H115614   4.501   0.858   7.821
 1597TIP3    H215615   4.617   0.783   7.873
 1598TIP3   OH215616   4.074   1.700   7.888
 1598TIP3    H115617   4.079   1.710   7.987
 1598TIP3    H215618   4.136   1.626   7.879
 1599TIP3   OH215619   1.454   3.015   7.853
 1599TIP3    H115620   1.399   2.943   7.817
 1599TIP3    H215621   1.414   3.032   7.939
 1600TIP3   OH215622   0.674   2.272   7.836
 1600TIP3    H115623   0.683   2.285   7.933
 1600TIP3    H215624   0.601   2.334   7.821
 1601TIP3   OH215625   0.826   3.301   7.871
 1601TIP3    H115626   0.831   3.275   7.777
 1601TIP3    H215627   0.766   3.233   7.905
 1602TIP3   OH215628   0.188   2.577   7.946
 1602TIP3    H115629   0.282   2.553   7.943
 1602TIP3    H215630   0.147   2.505   7.892
 1603TIP3   OH215631   1.022   3.515   7.856
 1603TIP3    H115632   0.958   3.442   7.862
 1603TIP3    H215633   1.099   3.470   7.812
 1604TIP3   OH215634   1.465   3.439   7.861
 1604TIP3    H115635   1.481   3.351   7.900
 1604TIP3    H215636   1.536   3.448   7.793
 1605TIP3   OH215637   0.537   3.051   7.814
 1605TIP3    H115638   0.544   3.026   7.909
 1605TIP3    H215639   0.622   3.017   7.781
 1606TIP3   OH215640   1.133   3.180   7.877
 1606TIP3    H115641   1.170   3.167   7.965
 1606TIP3    H215642   1.118   3.085   7.851
 1607TIP3   OH215643   0.774   2.699   7.898
 1607TIP3    H115644   0.711   2.720   7.827
 1607TIP3    H215645   0.852   2.678   7.843
 1608TIP3   OH215646   1.811   2.908   7.824
 1608TIP3    H115647   1.759   2.858   7.758
 1608TIP3    H215648   1.765   2.994   7.820
 1609TIP3   OH215649   1.702   2.567   7.902
 1609TIP3    H115650   1.742   2.615   7.826
 1609TIP3    H215651   1.656   2.498   7.852
 1610TIP3   OH215652   1.596   2.254   7.821
 1610TIP3    H115653   1.586   2.259   7.918
 1610TIP3    H215654   1.505   2.261   7.788
 1611TIP3   OH215655   0.332   3.636   7.933
 1611TIP3    H115656   0.338   3.613   8.028
 1611TIP3    H215657   0.341   3.546   7.895
 1612TIP3   OH215658   3.404   2.920   7.817
 1612TIP3    H115659   3.309   2.938   7.829
 1612TIP3    H215660   3.438   2.954   7.902
 1613TIP3   OH215661   2.578   2.277   7.849
 1613TIP3    H115662   2.570   2.290   7.945
 1613TIP3    H215663   2.513   2.341   7.817
 1614TIP3   OH215664   2.716   3.315   7.871
 1614TIP3    H115665   2.700   3.282   7.781
 1614TIP3    H215666   2.663   3.249   7.918
 1615TIP3   OH215667   2.068   2.559   7.896
 1615TIP3    H115668   2.139   2.544   7.961
 1615TIP3    H215669   1.988   2.528   7.940
 1616TIP3   OH215670   2.899   3.513   7.853
 1616TIP3    H115671   2.848   3.430   7.859
 1616TIP3    H215672   2.982   3.479   7.812
 1617TIP3   OH215673   3.362   3.431   7.858
 1617TIP3    H115674   3.415   3.351   7.878
 1617TIP3    H215675   3.413   3.464   7.781
 1618TIP3   OH215676   2.460   3.068   7.808
 1618TIP3    H115677   2.454   3.025   7.897
 1618TIP3    H215678   2.545   3.031   7.777
 1619TIP3   OH215679   3.029   3.171   7.897
 1619TIP3    H115680   3.037   3.126   7.983
 1619TIP3    H215681   3.023   3.090   7.842
 1620TIP3   OH215682   2.669   2.690   7.908
 1620TIP3    H115683   2.606   2.705   7.834
 1620TIP3    H215684   2.751   2.682   7.855
 1621TIP3   OH215685   3.686   2.930   7.794
 1621TIP3    H115686   3.592   2.918   7.811
 1621TIP3    H215687   3.685   3.021   7.761
 1622TIP3   OH215688   3.565   2.593   7.908
 1622TIP3    H115689   3.628   2.634   7.847
 1622TIP3    H215690   3.556   2.504   7.869
 1623TIP3   OH215691   3.457   2.234   7.843
 1623TIP3    H115692   3.470   2.237   7.941
 1623TIP3    H215693   3.366   2.201   7.836
 1624TIP3   OH215694   2.226   3.602   7.878
 1624TIP3    H115695   2.221   3.586   7.974
 1624TIP3    H215696   2.279   3.523   7.856
 1625TIP3   OH215697   4.426   2.240   7.861
 1625TIP3    H115698   4.467   2.246   7.950
 1625TIP3    H215699   4.379   2.325   7.859
 1626TIP3   OH215700   4.600   3.303   7.872
 1626TIP3    H115701   4.588   3.251   7.790
 1626TIP3    H215702   4.539   3.259   7.933
 1627TIP3   OH215703   3.939   2.572   7.859
 1627TIP3    H115704   3.994   2.593   7.937
 1627TIP3    H215705   3.895   2.490   7.886
 1628TIP3   OH215706   4.779   3.502   7.867
 1628TIP3    H115707   4.721   3.423   7.855
 1628TIP3    H215708   4.865   3.466   7.836
 1629TIP3   OH215709   4.332   3.047   7.842
 1629TIP3    H115710   4.298   3.020   7.931
 1629TIP3    H215711   4.417   3.000   7.841
 1630TIP3   OH215712   4.896   3.180   7.837
 1630TIP3    H115713   4.821   3.184   7.899
 1630TIP3    H215714   4.902   3.082   7.820
 1631TIP3   OH215715   4.515   2.707   7.916
 1631TIP3    H115716   4.440   2.687   7.858
 1631TIP3    H215717   4.586   2.673   7.860
 1632TIP3   OH215718   4.078   3.596   7.911
 1632TIP3    H115719   4.076   3.580   8.006
 1632TIP3    H215720   4.126   3.515   7.885
 1633TIP3   OH215721   1.469   4.884   7.834
 1633TIP3    H115722   1.374   4.868   7.848
 1633TIP3    H215723   1.510   4.828   7.902
 1634TIP3   OH215724   0.679   4.115   7.810
 1634TIP3    H115725   0.656   4.133   7.902
 1634TIP3    H215726   0.613   4.170   7.764
 1635TIP3   OH215727   0.754   5.140   7.865
 1635TIP3    H115728   0.826   5.075   7.853
 1635TIP3    H215729   0.737   5.134   7.960
 1636TIP3   OH215730   0.207   4.433   7.891
 1636TIP3    H115731   0.259   4.428   7.975
 1636TIP3    H215732   0.116   4.421   7.925
 1637TIP3   OH215733   0.551   4.921   7.824
 1637TIP3    H115734   0.563   4.860   7.898
 1637TIP3    H215735   0.642   4.947   7.803
 1638TIP3   OH215736   1.152   5.066   7.941
 1638TIP3    H115737   1.227   5.034   7.995
 1638TIP3    H215738   1.132   4.988   7.885
 1639TIP3   OH215739   0.784   4.547   7.916
 1639TIP3    H115740   0.697   4.531   7.874
 1639TIP3    H215741   0.829   4.584   7.838
 1640TIP3   OH215742   1.804   4.811   7.832
 1640TIP3    H115743   1.741   4.783   7.762
 1640TIP3    H215744   1.774   4.902   7.847
 1641TIP3   OH215745   1.700   4.469   7.915
 1641TIP3    H115746   1.753   4.519   7.851
 1641TIP3    H215747   1.665   4.398   7.858
 1642TIP3   OH215748   1.587   4.102   7.800
 1642TIP3    H115749   1.612   4.118   7.894
 1642TIP3    H215750   1.489   4.110   7.804
 1643TIP3   OH215751   3.384   4.884   7.862
 1643TIP3    H115752   3.352   4.800   7.825
 1643TIP3    H215753   3.425   4.854   7.945
 1644TIP3   OH215754   2.562   4.116   7.805
 1644TIP3    H115755   2.544   4.150   7.896
 1644TIP3    H215756   2.501   4.167   7.752
 1645TIP3   OH215757   2.622   5.173   7.865
 1645TIP3    H115758   2.679   5.095   7.854
 1645TIP3    H215759   2.610   5.172   7.961
 1646TIP3   OH215760   2.065   4.457   7.872
 1646TIP3    H115761   2.108   4.472   7.957
 1646TIP3    H215762   1.989   4.402   7.894
 1647TIP3   OH215763   2.454   4.898   7.828
 1647TIP3    H115764   2.454   4.802   7.814
 1647TIP3    H215765   2.541   4.920   7.788
 1648TIP3   OH215766   3.010   5.064   7.936
 1648TIP3    H115767   3.081   5.026   7.989
 1648TIP3    H215768   2.992   4.992   7.872
 1649TIP3   OH215769   2.651   4.576   7.924
 1649TIP3    H115770   2.568   4.544   7.885
 1649TIP3    H215771   2.693   4.616   7.845
 1650TIP3   OH215772   3.691   4.831   7.836
 1650TIP3    H115773   3.615   4.794   7.786
 1650TIP3    H215774   3.666   4.926   7.831
 1651TIP3   OH215775   3.565   4.473   7.894
 1651TIP3    H115776   3.628   4.517   7.835
 1651TIP3    H215777   3.535   4.401   7.835
 1652TIP3   OH215778   3.456   4.125   7.828
 1652TIP3    H115779   3.474   4.125   7.924
 1652TIP3    H215780   3.358   4.126   7.827
 1653TIP3   OH215781   4.410   4.094   7.784
 1653TIP3    H115782   4.404   4.145   7.869
 1653TIP3    H215783   4.381   4.159   7.720
 1654TIP3   OH215784   4.525   5.148   7.874
 1654TIP3    H115785   4.599   5.086   7.866
 1654TIP3    H215786   4.519   5.160   7.970
 1655TIP3   OH215787   3.929   4.458   7.871
 1655TIP3    H115788   4.010   4.451   7.925
 1655TIP3    H215789   3.870   4.396   7.915
 1656TIP3   OH215790   4.332   4.899   7.818
 1656TIP3    H115791   4.341   4.876   7.912
 1656TIP3    H215792   4.425   4.904   7.789
 1657TIP3   OH215793   4.840   5.052   7.830
 1657TIP3    H115794   4.859   5.028   7.921
 1657TIP3    H215795   4.863   4.968   7.787
 1658TIP3   OH215796   4.522   4.550   7.915
 1658TIP3    H115797   4.442   4.532   7.863
 1658TIP3    H215798   4.582   4.581   7.844
 1659TIP3   OH215799   1.209   1.008   0.659
 1659TIP3    H115800   1.210   1.102   0.689
 1659TIP3    H215801   1.131   1.010   0.603
 1660TIP3   OH215802   1.093   0.884   1.000
 1660TIP3    H115803   1.090   0.838   1.087
 1660TIP3    H215804   1.008   0.861   0.960
 1661TIP3   OH215805   0.280   0.918   1.183
 1661TIP3    H115806   0.264   0.835   1.232
 1661TIP3    H215807   0.360   0.949   1.229
 1662TIP3   OH215808   1.383   1.193   0.869
 1662TIP3    H115809   1.379   1.123   0.936
 1662TIP3    H215810   1.417   1.267   0.923
 1663TIP3   OH215811   0.382   1.353   0.975
 1663TIP3    H115812   0.366   1.257   0.959
 1663TIP3    H215813   0.476   1.343   1.000
 1664TIP3   OH215814   0.045   0.597   0.591
 1664TIP3    H115815   0.065   0.690   0.567
 1664TIP3    H215816   0.066   0.551   0.506
 1665TIP3   OH215817   0.087   0.885   0.797
 1665TIP3    H115818   0.150   0.809   0.811
 1665TIP3    H215819   0.148   0.960   0.783
 1666TIP3   OH215820   1.207   1.761   0.881
 1666TIP3    H115821   1.274   1.707   0.833
 1666TIP3    H215822   1.149   1.687   0.908
 1667TIP3   OH215823   0.893   1.200   1.115
 1667TIP3    H115824   0.932   1.146   1.046
 1667TIP3    H215825   0.975   1.227   1.162
 1668TIP3   OH215826   1.775   0.267   1.116
 1668TIP3    H115827   1.790   0.325   1.193
 1668TIP3    H215828   1.828   0.313   1.049
 1669TIP3   OH215829   1.280   0.615   1.130
 1669TIP3    H115830   1.311   0.524   1.143
 1669TIP3    H215831   1.252   0.612   1.036
 1670TIP3   OH215832   0.577   0.406   0.843
 1670TIP3    H115833   0.589   0.473   0.771
 1670TIP3    H215834   0.521   0.342   0.792
 1671TIP3   OH215835   1.289   0.415   0.684
 1671TIP3    H115836   1.347   0.409   0.765
 1671TIP3    H215837   1.347   0.475   0.633
 1672TIP3   OH215838   0.249   0.694   0.882
 1672TIP3    H115839   0.279   0.633   0.952
 1672TIP3    H215840   0.262   0.638   0.802
 1673TIP3   OH215841   0.657   0.803   0.843
 1673TIP3    H115842   0.751   0.780   0.858
 1673TIP3    H215843   0.633   0.724   0.790
 1674TIP3   OH215844   1.808   0.426   1.345
 1674TIP3    H115845   1.766   0.513   1.324
 1674TIP3    H215846   1.823   0.438   1.441
 1675TIP3   OH215847   0.489   0.375   1.245
 1675TIP3    H115848   0.437   0.415   1.172
 1675TIP3    H215849   0.417   0.361   1.310
 1676TIP3   OH215850   1.156   1.268   0.582
 1676TIP3    H115851   1.125   1.279   0.490
 1676TIP3    H215852   1.113   1.345   0.627
 1677TIP3   OH215853   0.685   1.074   1.230
 1677TIP3    H115854   0.624   1.144   1.260
 1677TIP3    H215855   0.760   1.130   1.196
 1678TIP3   OH215856   1.486   0.423   0.859
 1678TIP3    H115857   1.507   0.341   0.907
 1678TIP3    H215858   1.534   0.487   0.915
 1679TIP3   OH215859   0.423   0.537   1.043
 1679TIP3    H115860   0.464   0.619   1.080
 1679TIP3    H215861   0.459   0.529   0.952
 1680TIP3   OH215862   0.562   1.337   1.291
 1680TIP3    H115863   0.561   1.433   1.311
 1680TIP3    H215864   0.469   1.314   1.311
 1681TIP3   OH215865   0.100   1.252   0.391
 1681TIP3    H115866   0.126   1.310   0.315
 1681TIP3    H215867   0.155   1.282   0.464
 1682TIP3   OH215868   1.494   1.373   1.065
 1682TIP3    H115869   1.403   1.409   1.077
 1682TIP3    H215870   1.539   1.453   1.034
 1683TIP3   OH215871   1.522   0.278   1.247
 1683TIP3    H115872   1.452   0.302   1.182
 1683TIP3    H215873   1.599   0.263   1.188
 1684TIP3   OH215874   0.826   0.111   0.918
 1684TIP3    H115875   0.819   0.017   0.943
 1684TIP3    H215876   0.751   0.144   0.973
 1685TIP3   OH215877   1.349   1.567   0.755
 1685TIP3    H115878   1.359   1.491   0.693
 1685TIP3    H215879   1.428   1.620   0.733
 1686TIP3   OH215880   1.453   1.363   0.581
 1686TIP3    H115881   1.425   1.303   0.509
 1686TIP3    H215882   1.421   1.313   0.658
 1687TIP3   OH215883   1.616   1.231   1.421
 1687TIP3    H115884   1.623   1.165   1.349
 1687TIP3    H215885   1.633   1.313   1.370
 1688TIP3   OH215886   1.066   0.915   0.402
 1688TIP3    H115887   1.007   0.974   0.353
 1688TIP3    H215888   1.148   0.913   0.348
 1689TIP3   OH215889   1.089   0.759   0.127
 1689TIP3    H115890   1.168   0.796   0.171
 1689TIP3    H215891   1.116   0.667   0.109
 1690TIP3   OH215892   1.815   0.867   1.227
 1690TIP3    H115893   1.745   0.933   1.211
 1690TIP3    H215894   1.885   0.901   1.168
 1691TIP3   OH215895   1.444   0.945   0.517
 1691TIP3    H115896   1.364   0.967   0.570
 1691TIP3    H215897   1.495   0.892   0.582
 1692TIP3   OH215898   1.403   0.780   1.448
 1692TIP3    H115899   1.353   0.856   1.483
 1692TIP3    H215900   1.365   0.777   1.358
 1693TIP3   OH215901   0.565   0.978   0.661
 1693TIP3    H115902   0.542   0.925   0.581
 1693TIP3    H215903   0.594   0.911   0.727
 1694TIP3   OH215904   0.681   1.319   0.955
 1694TIP3    H115905   0.701   1.289   0.865
 1694TIP3    H215906   0.754   1.282   1.007
 1695TIP3   OH215907   0.581   0.861   1.104
 1695TIP3    H115908   0.618   0.874   1.014
 1695TIP3    H215909   0.622   0.936   1.152
 1696TIP3   OH215910   1.246   1.459   1.117
 1696TIP3    H115911   1.246   1.521   1.193
 1696TIP3    H215912   1.197   1.384   1.155
 1697TIP3   OH215913   0.653   1.296   1.541
 1697TIP3    H115914   0.594   1.351   1.594
 1697TIP3    H215915   0.607   1.291   1.454
 1698TIP3   OH215916   1.309   0.866   0.297
 1698TIP3    H115917   1.363   0.892   0.377
 1698TIP3    H215918   1.336   0.937   0.233
 1699TIP3   OH215919   0.395   0.984   1.443
 1699TIP3    H115920   0.376   1.042   1.519
 1699TIP3    H215921   0.307   0.941   1.434
 1700TIP3   OH215922   1.043   1.499   0.689
 1700TIP3    H115923   1.103   1.572   0.701
 1700TIP3    H215924   1.001   1.523   0.604
 1701TIP3   OH215925   1.689   0.018   0.279
 1701TIP3    H115926   1.596   0.046   0.285
 1701TIP3    H215927   1.734   0.102   0.260
 1702TIP3   OH215928   0.467   0.887   0.406
 1702TIP3    H115929   0.436   0.980   0.402
 1702TIP3    H215930   0.382   0.840   0.413
 1703TIP3   OH215931   1.752   1.493   0.127
 1703TIP3    H115932   1.781   1.582   0.158
 1703TIP3    H215933   1.838   1.451   0.108
 1704TIP3   OH215934   0.108   1.162   1.328
 1704TIP3    H115935   0.042   1.169   1.256
 1704TIP3    H215936   0.134   1.069   1.319
 1705TIP3   OH215937   0.077   1.436   0.961
 1705TIP3    H115938   0.141   1.377   1.002
 1705TIP3    H215939   0.001   1.436   1.023
 1706TIP3   OH215940   0.909   1.426   1.538
 1706TIP3    H115941   0.913   1.408   1.633
 1706TIP3    H215942   0.814   1.412   1.520
 1707TIP3   OH215943   1.072   1.840   0.439
 1707TIP3    H115944   1.052   1.855   0.344
 1707TIP3    H215945   1.039   1.921   0.481
 1708TIP3   OH215946   0.389   1.662   0.675
 1708TIP3    H115947   0.419   1.647   0.768
 1708TIP3    H215948   0.353   1.573   0.652
 1709TIP3   OH215949   1.282   1.742   0.190
 1709TIP3    H115950   1.362   1.712   0.142
 1709TIP3    H215951   1.312   1.728   0.282
 1710TIP3   OH215952   1.332   1.769   0.455
 1710TIP3    H115953   1.235   1.770   0.466
 1710TIP3    H215954   1.366   1.741   0.542
 1711TIP3   OH215955   1.551   0.671   1.649
 1711TIP3    H115956   1.501   0.713   1.576
 1711TIP3    H215957   1.565   0.580   1.618
 1712TIP3   OH215958   0.321   1.296   1.435
 1712TIP3    H115959   0.338   1.247   1.518
 1712TIP3    H215960   0.242   1.249   1.401
 1713TIP3   OH215961   0.608   0.187   1.070
 1713TIP3    H115962   0.537   0.161   1.005
 1713TIP3    H215963   0.589   0.122   1.140
 1714TIP3   OH215964   1.093   0.121   1.384
 1714TIP3    H115965   1.035   0.097   1.459
 1714TIP3    H215966   1.038   0.099   1.308
 1715TIP3   OH215967   1.355   0.495   1.442
 1715TIP3    H115968   1.306   0.465   1.521
 1715TIP3    H215969   1.372   0.588   1.464
 1716TIP3   OH215970   1.378   1.025   0.096
 1716TIP3    H115971   1.396   0.951   0.037
 1716TIP3    H215972   1.468   1.066   0.101
 1717TIP3   OH215973   1.035   0.336   0.145
 1717TIP3    H115974   0.963   0.315   0.206
 1717TIP3    H215975   0.989   0.330   0.059
 1718TIP3   OH215976   0.624   0.622   1.203
 1718TIP3    H115977   0.592   0.637   1.295
 1718TIP3    H215978   0.612   0.713   1.168
 1719TIP3   OH215979   0.587   0.610   0.669
 1719TIP3    H115980   0.490   0.619   0.659
 1719TIP3    H215981   0.608   0.588   0.576
 1720TIP3   OH215982   1.169   0.722   0.569
 1720TIP3    H115983   1.133   0.804   0.529
 1720TIP3    H215984   1.221   0.689   0.494
 1721TIP3   OH215985   1.045   0.721   1.671
 1721TIP3    H115986   0.986   0.654   1.710
 1721TIP3    H215987   1.124   0.711   1.728
 1722TIP3   OH215988   1.240   0.661   0.855
 1722TIP3    H115989   1.231   0.739   0.796
 1722TIP3    H215990   1.216   0.591   0.793
 1723TIP3   OH215991   0.303   0.648   1.302
 1723TIP3    H115992   0.389   0.680   1.336
 1723TIP3    H215993   0.300   0.557   1.337
 1724TIP3   OH215994   0.688   0.413   0.112
 1724TIP3    H115995   0.626   0.367   0.172
 1724TIP3    H215996   0.665   0.506   0.126
 1725TIP3   OH215997   0.042   0.290   0.787
 1725TIP3    H115998   0.132   0.306   0.824
 1725TIP3    H215999   0.060   0.264   0.695
 1726TIP3   OH216000   0.148   0.429   0.372
 1726TIP3    H116001   0.179   0.508   0.322
 1726TIP3    H216002   0.120   0.373   0.297
 1727TIP3   OH216003   1.111   0.784   1.257
 1727TIP3    H116004   1.180   0.721   1.227
 1727TIP3    H216005   1.063   0.730   1.324
 1728TIP3   OH216006   0.885   0.395   0.715
 1728TIP3    H116007   0.795   0.358   0.732
 1728TIP3    H216008   0.928   0.390   0.803
 1729TIP3   OH216009   0.309   0.555   0.665
 1729TIP3    H116010   0.234   0.545   0.604
 1729TIP3    H216011   0.349   0.466   0.655
 1730TIP3   OH216012   0.584   0.560   0.402
 1730TIP3    H116013   0.671   0.599   0.387
 1730TIP3    H216014   0.530   0.613   0.340
 1731TIP3   OH216015   1.304   0.324   1.076
 1731TIP3    H116016   1.226   0.322   1.135
 1731TIP3    H216017   1.282   0.266   1.001
 1732TIP3   OH216018   0.506   0.657   0.151
 1732TIP3    H116019   0.478   0.672   0.059
 1732TIP3    H216020   0.595   0.699   0.149
 1733TIP3   OH216021   0.335   1.126   1.662
 1733TIP3    H116022   0.413   1.110   1.718
 1733TIP3    H216023   0.265   1.138   1.729
 1734TIP3   OH216024   0.888   0.684   0.919
 1734TIP3    H116025   0.983   0.676   0.902
 1734TIP3    H216026   0.870   0.605   0.971
 1735TIP3   OH216027   0.423   0.307   0.640
 1735TIP3    H116028   0.377   0.220   0.651
 1735TIP3    H216029   0.472   0.290   0.558
 1736TIP3   OH216030   0.846   0.455   1.172
 1736TIP3    H116031   0.835   0.548   1.202
 1736TIP3    H216032   0.932   0.436   1.215
 1737TIP3   OH216033   0.875   1.159   0.393
 1737TIP3    H116034   0.809   1.099   0.354
 1737TIP3    H216035   0.840   1.168   0.485
 1738TIP3   OH216036   1.625   1.062   1.210
 1738TIP3    H116037   1.671   1.098   1.130
 1738TIP3    H216038   1.533   1.055   1.178
 1739TIP3   OH216039   1.291   0.432   0.129
 1739TIP3    H116040   1.201   0.394   0.143
 1739TIP3    H216041   1.303   0.492   0.205
 1740TIP3   OH216042   0.978   1.154   1.444
 1740TIP3    H116043   0.946   1.096   1.517
 1740TIP3    H216044   0.963   1.241   1.483
 1741TIP3   OH216045   1.331   0.604   0.360
 1741TIP3    H116046   1.421   0.611   0.400
 1741TIP3    H216047   1.323   0.692   0.319
 1742TIP3   OH216048   0.422   1.090   0.918
 1742TIP3    H116049   0.462   1.055   0.837
 1742TIP3    H216050   0.435   1.016   0.978
 1743TIP3   OH216051   1.075   1.297   0.296
 1743TIP3    H116052   1.024   1.372   0.332
 1743TIP3    H216053   1.014   1.225   0.323
 1744TIP3   OH216054   0.141   0.891   1.438
 1744TIP3    H116055   0.111   0.866   1.527
 1744TIP3    H216056   0.072   0.846   1.384
 1745TIP3   OH216057   1.277   1.387   1.536
 1745TIP3    H116058   1.188   1.415   1.512
 1745TIP3    H216059   1.296   1.441   1.613
 1746TIP3   OH216060   1.818   0.587   0.376
 1746TIP3    H116061   1.761   0.581   0.296
 1746TIP3    H216062   1.852   0.677   0.366
 1747TIP3   OH216063   1.840   1.185   1.559
 1747TIP3    H116064   1.757   1.226   1.524
 1747TIP3    H216065   1.892   1.177   1.476
 1748TIP3   OH216066   1.719   1.474   0.401
 1748TIP3    H116067   1.636   1.427   0.419
 1748TIP3    H216068   1.730   1.468   0.304
 1749TIP3   OH216069   1.392   0.976   1.065
 1749TIP3    H116070   1.302   0.946   1.048
 1749TIP3    H216071   1.445   0.913   1.011
 1750TIP3   OH216072   0.600   1.425   0.650
 1750TIP3    H116073   0.660   1.497   0.624
 1750TIP3    H216074   0.543   1.468   0.715
 1751TIP3   OH216075   0.165   0.951   0.215
 1751TIP3    H116076   0.258   0.973   0.235
 1751TIP3    H216077   0.149   1.001   0.134
 1752TIP3   OH216078   0.757   1.197   0.639
 1752TIP3    H116079   0.703   1.278   0.638
 1752TIP3    H216080   0.694   1.130   0.671
 1753TIP3   OH216081   0.838   1.597   1.314
 1753TIP3    H116082   0.901   1.661   1.275
 1753TIP3    H216083   0.892   1.545   1.377
 1754TIP3   OH216084   0.677   1.686   0.621
 1754TIP3    H116085   0.581   1.703   0.619
 1754TIP3    H216086   0.708   1.777   0.641
 1755TIP3   OH216087   1.143   1.208   1.219
 1755TIP3    H116088   1.102   1.170   1.301
 1755TIP3    H216089   1.215   1.144   1.201
 1756TIP3   OH216090   1.401   1.353   0.128
 1756TIP3    H116091   1.428   1.305   0.209
 1756TIP3    H216092   1.306   1.335   0.128
 1757TIP3   OH216093   1.483   1.659   1.421
 1757TIP3    H116094   1.394   1.632   1.392
 1757TIP3    H216095   1.495   1.742   1.370
 1758TIP3   OH216096   1.881   1.730   0.216
 1758TIP3    H116097   1.940   1.782   0.158
 1758TIP3    H216098   1.812   1.797   0.234
 1759TIP3   OH216099   0.260   0.369   1.385
 1759TIP3    H116100   0.173   0.399   1.416
 1759TIP3    H216101   0.250   0.274   1.402
 1760TIP3   OH216102   1.466   1.194   0.348
 1760TIP3    H116103   1.447   1.100   0.365
 1760TIP3    H216104   1.562   1.197   0.371
 1761TIP3   OH216105   0.241   1.576   1.271
 1761TIP3    H116106   0.275   1.486   1.267
 1761TIP3    H216107   0.285   1.611   1.349
 1762TIP3   OH216108   0.684   1.370   0.242
 1762TIP3    H116109   0.733   1.314   0.304
 1762TIP3    H216110   0.706   1.460   0.276
 1763TIP3   OH216111   0.348   1.125   0.324
 1763TIP3    H116112   0.256   1.151   0.338
 1763TIP3    H216113   0.382   1.203   0.277
 1764TIP3   OH216114   1.150   0.374   1.311
 1764TIP3    H116115   1.234   0.398   1.356
 1764TIP3    H216116   1.131   0.291   1.360
 1765TIP3   OH216117   1.245   0.287   0.460
 1765TIP3    H116118   1.221   0.375   0.426
 1765TIP3    H216119   1.276   0.312   0.550
 1766TIP3   OH216120   0.958   1.505   0.431
 1766TIP3    H116121   0.873   1.549   0.409
 1766TIP3    H216122   1.018   1.553   0.372
 1767TIP3   OH216123   0.973   0.487   0.475
 1767TIP3    H116124   1.026   0.562   0.509
 1767TIP3    H216125   0.930   0.456   0.557
 1768TIP3   OH216126   1.012   0.602   1.432
 1768TIP3    H116127   1.029   0.649   1.518
 1768TIP3    H216128   1.061   0.519   1.444
 1769TIP3   OH216129   1.008   0.191   0.581
 1769TIP3    H116130   0.984   0.265   0.641
 1769TIP3    H216131   1.097   0.219   0.552
 1770TIP3   OH216132   0.722   1.610   0.358
 1770TIP3    H116133   0.757   1.685   0.304
 1770TIP3    H216134   0.698   1.660   0.439
 1771TIP3   OH216135   0.549   0.294   0.318
 1771TIP3    H116136   0.545   0.385   0.355
 1771TIP3    H216137   0.642   0.270   0.337
 1772TIP3   OH216138   1.587   0.399   1.551
 1772TIP3    H116139   1.503   0.424   1.506
 1772TIP3    H216140   1.618   0.332   1.488
 1773TIP3   OH216141   1.483   0.753   0.923
 1773TIP3    H116142   1.401   0.702   0.934
 1773TIP3    H216143   1.548   0.701   0.976
 1774TIP3   OH216144   0.425   1.372   0.176
 1774TIP3    H116145   0.515   1.391   0.211
 1774TIP3    H216146   0.446   1.318   0.099
 1775TIP3   OH216147   0.175   0.684   0.239
 1775TIP3    H116148   0.162   0.781   0.232
 1775TIP3    H216149   0.195   0.663   0.144
 1776TIP3   OH216150   1.555   1.716   1.073
 1776TIP3    H116151   1.573   1.788   1.008
 1776TIP3    H216152   1.647   1.688   1.089
 1777TIP3   OH216153   0.410   0.094   0.917
 1777TIP3    H116154   0.381   0.061   0.831
 1777TIP3    H216155   0.388   0.017   0.972
 1778TIP3   OH216156   0.221   1.464   0.592
 1778TIP3    H116157   0.152   1.399   0.612
 1778TIP3    H216158   0.224   1.471   0.494
 1779TIP3   OH216159   0.171   1.811   1.759
 1779TIP3    H116160   0.254   1.790   1.806
 1779TIP3    H216161   0.154   1.727   1.712
 1780TIP3   OH216162   0.945   1.560   0.100
 1780TIP3    H116163   0.881   1.527   0.035
 1780TIP3    H216164   1.020   1.583   0.042
 1781TIP3   OH216165   1.511   1.656   0.083
 1781TIP3    H116166   1.523   1.567   0.121
 1781TIP3    H216167   1.487   1.631  -0.009
 1782TIP3   OH216168   0.095   1.145   1.789
 1782TIP3    H116169   0.112   1.049   1.787
 1782TIP3    H216170   0.039   1.156   1.708
 1783TIP3   OH216171   0.583   1.095   0.072
 1783TIP3    H116172   0.585   1.033   0.145
 1783TIP3    H216173   0.675   1.127   0.079
 1784TIP3   OH216174   0.809   1.114   1.674
 1784TIP3    H116175   0.753   1.173   1.619
 1784TIP3    H216176   0.774   1.024   1.660
 1785TIP3   OH216177   1.372   1.116   1.475
 1785TIP3    H116178   1.459   1.159   1.456
 1785TIP3    H216179   1.325   1.194   1.510
 1786TIP3   OH216180   0.183   0.855   1.758
 1786TIP3    H116181   0.263   0.834   1.707
 1786TIP3    H216182   0.206   0.818   1.846
 1787TIP3   OH216183   0.720   0.978   0.269
 1787TIP3    H116184   0.648   0.946   0.327
 1787TIP3    H216185   0.744   0.896   0.222
 1788TIP3   OH216186   0.534   0.750   1.419
 1788TIP3    H116187   0.476   0.819   1.457
 1788TIP3    H216188   0.621   0.796   1.427
 1789TIP3   OH216189   0.767   0.726   0.153
 1789TIP3    H116190   0.780   0.754   0.058
 1789TIP3    H216191   0.858   0.695   0.171
 1790TIP3   OH216192   1.640   1.040   0.111
 1790TIP3    H116193   1.714   1.006   0.060
 1790TIP3    H216194   1.669   1.132   0.129
 1791TIP3   OH216195   0.657   0.475   1.605
 1791TIP3    H116196   0.683   0.414   1.533
 1791TIP3    H216197   0.600   0.538   1.559
 1792TIP3   OH216198   0.714   0.321   1.382
 1792TIP3    H116199   0.776   0.377   1.331
 1792TIP3    H216200   0.633   0.322   1.328
 1793TIP3   OH216201   0.819   0.901   1.387
 1793TIP3    H116202   0.909   0.908   1.353
 1793TIP3    H216203   0.771   0.971   1.339
 1794TIP3   OH216204   1.268   0.634   1.816
 1794TIP3    H116205   1.235   0.583   1.893
 1794TIP3    H216206   1.320   0.704   1.858
 1795TIP3   OH216207   1.429   0.954   1.682
 1795TIP3    H116208   1.398   1.013   1.609
 1795TIP3    H216209   1.521   0.932   1.655
 1796TIP3   OH216210   0.432   0.649   1.771
 1796TIP3    H116211   0.411   0.555   1.764
 1796TIP3    H216212   0.522   0.653   1.732
 1797TIP3   OH216213   0.788   0.058   1.316
 1797TIP3    H116214   0.756   0.150   1.329
 1797TIP3    H216215   0.704   0.008   1.317
 1798TIP3   OH216216   0.913   0.482   1.737
 1798TIP3    H116217   0.852   0.492   1.810
 1798TIP3    H216218   0.850   0.481   1.662
 1799TIP3   OH216219   1.192   0.390   1.650
 1799TIP3    H116220   1.109   0.416   1.696
 1799TIP3    H216221   1.255   0.392   1.725
 1800TIP3   OH216222   1.333   0.347   1.881
 1800TIP3    H116223   1.340   0.251   1.878
 1800TIP3    H216224   1.273   0.367   1.954
 1801TIP3   OH216225   0.288   0.383   1.800
 1801TIP3    H116226   0.286   0.311   1.734
 1801TIP3    H216227   0.268   0.340   1.884
 1802TIP3   OH216228   0.885   0.036   1.582
 1802TIP3    H116229   0.918  -0.055   1.576
 1802TIP3    H216230   0.837   0.045   1.498
 1803TIP3   OH216231   0.777   1.860   0.263
 1803TIP3    H116232   0.870   1.880   0.242
 1803TIP3    H216233   0.734   1.900   0.186
 1804TIP3   OH216234   0.153   1.420   0.189
 1804TIP3    H116235   0.248   1.444   0.190
 1804TIP3    H216236   0.140   1.398   0.096
 1805TIP3   OH216237   5.256   1.907   0.613
 1805TIP3    H116238   5.232   1.974   0.543
 1805TIP3    H216239   5.186   1.925   0.680
 1806TIP3   OH216240   0.147   1.658   0.836
 1806TIP3    H116241   0.148   1.565   0.870
 1806TIP3    H216242   0.178   1.705   0.916
 1807TIP3   OH216243   1.825   1.714   1.111
 1807TIP3    H116244   1.856   1.694   1.203
 1807TIP3    H216245   1.855   1.805   1.102
 1808TIP3   OH216246   1.826   1.660   1.388
 1808TIP3    H116247   1.777   1.580   1.362
 1808TIP3    H216248   1.844   1.640   1.482
 1809TIP3   OH216249   1.695   1.258   1.813
 1809TIP3    H116250   1.605   1.289   1.813
 1809TIP3    H216251   1.744   1.333   1.773
 1810TIP3   OH216252   1.737   1.156   0.387
 1810TIP3    H116253   1.817   1.206   0.415
 1810TIP3    H216254   1.735   1.087   0.454
 1811TIP3   OH216255   1.803   0.926   0.630
 1811TIP3    H116256   1.725   0.866   0.642
 1811TIP3    H216257   1.796   0.979   0.711
 1812TIP3   OH216258   1.779   1.177   1.036
 1812TIP3    H116259   1.861   1.127   1.021
 1812TIP3    H216260   1.811   1.268   1.020
 1813TIP3   OH216261   1.648   1.473   1.298
 1813TIP3    H116262   1.592   1.529   1.356
 1813TIP3    H216263   1.590   1.455   1.222
 1814TIP3   OH216264   1.837   0.911   0.259
 1814TIP3    H116265   1.762   0.872   0.214
 1814TIP3    H216266   1.800   0.995   0.292
 1815TIP3   OH216267   1.671   0.605   0.149
 1815TIP3    H116268   1.681   0.635   0.055
 1815TIP3    H216269   1.648   0.511   0.134
 1816TIP3   OH216270   1.588   0.786   0.679
 1816TIP3    H116271   1.553   0.704   0.640
 1816TIP3    H216272   1.561   0.775   0.773
 1817TIP3   OH216273   0.134   1.051   1.001
 1817TIP3    H116274   0.118   0.971   0.947
 1817TIP3    H216275   0.202   1.019   1.066
 1818TIP3   OH216276   1.697   0.954   1.592
 1818TIP3    H116277   1.708   0.928   1.500
 1818TIP3    H216278   1.743   1.042   1.594
 1819TIP3   OH216279   1.608   0.345   0.139
 1819TIP3    H116280   1.689   0.290   0.150
 1819TIP3    H216281   1.543   0.296   0.190
 1820TIP3   OH216282   1.563   0.555   0.508
 1820TIP3    H116283   1.559   0.459   0.528
 1820TIP3    H216284   1.653   0.560   0.473
 1821TIP3   OH216285   1.650   0.592   1.063
 1821TIP3    H116286   1.749   0.595   1.062
 1821TIP3    H216287   1.638   0.595   1.160
 1822TIP3   OH216288   1.678   0.659   1.322
 1822TIP3    H116289   1.599   0.695   1.364
 1822TIP3    H216290   1.725   0.742   1.294
 1823TIP3   OH216291   0.068   0.553   1.693
 1823TIP3    H116292   0.121   0.631   1.715
 1823TIP3    H216293   0.136   0.484   1.684
 1824TIP3   OH216294   1.855   0.052   1.857
 1824TIP3    H116295   1.921   0.032   1.790
 1824TIP3    H216296   1.837   0.146   1.842
 1825TIP3   OH216297   1.581   0.271   0.548
 1825TIP3    H116298   1.634   0.234   0.621
 1825TIP3    H216299   1.552   0.190   0.501
 1826TIP3   OH216300   0.254   0.346   0.962
 1826TIP3    H116301   0.182   0.302   1.010
 1826TIP3    H216302   0.286   0.412   1.027
 1827TIP3   OH216303   0.038   0.666   1.100
 1827TIP3    H116304   0.070   0.725   1.031
 1827TIP3    H216305   0.116   0.657   1.158
 1828TIP3   OH216306   1.792   0.288   1.715
 1828TIP3    H116307   1.704   0.321   1.690
 1828TIP3    H216308   1.802   0.216   1.650
 1829TIP3   OH216309   1.848   0.235   0.172
 1829TIP3    H116310   1.901   0.218   0.092
 1829TIP3    H216311   1.911   0.288   0.226
 1830TIP3   OH216312   0.050   0.203   0.534
 1830TIP3    H116313  -0.016   0.252   0.481
 1830TIP3    H216314   0.127   0.218   0.476
 1831TIP3   OH216315   1.510   1.768   0.675
 1831TIP3    H116316   1.584   1.763   0.611
 1831TIP3    H216317   1.547   1.825   0.746
 1832TIP3   OH216318   0.090   0.106   1.308
 1832TIP3    H116319   0.035   0.032   1.282
 1832TIP3    H216320   0.066   0.174   1.242
 1833TIP3   OH216321   0.147   1.462   1.698
 1833TIP3    H116322   0.203   1.424   1.628
 1833TIP3    H216323   0.180   1.415   1.775
 1834TIP3   OH216324   0.586   1.606   1.405
 1834TIP3    H116325   0.565   1.695   1.367
 1834TIP3    H216326   0.679   1.598   1.374
 1835TIP3   OH216327   1.228   1.809   1.568
 1835TIP3    H116328   1.308   1.820   1.513
 1835TIP3    H216329   1.256   1.742   1.632
 1836TIP3   OH216330   1.702   0.106   1.509
 1836TIP3    H116331   1.612   0.106   1.476
 1836TIP3    H216332   1.715   0.008   1.516
 1837TIP3   OH216333   0.334   1.926   1.411
 1837TIP3    H116334   0.252   1.955   1.367
 1837TIP3    H216335   0.316   1.950   1.504
 1838TIP3   OH216336   0.557   1.841   1.274
 1838TIP3    H116337   0.473   1.869   1.318
 1838TIP3    H216338   0.562   1.906   1.203
 1839TIP3   OH216339   0.983   1.785   1.181
 1839TIP3    H116340   0.975   1.835   1.098
 1839TIP3    H216341   1.015   1.855   1.242
 1840TIP3   OH216342   1.226   1.668   1.289
 1840TIP3    H116343   1.151   1.698   1.234
 1840TIP3    H216344   1.291   1.739   1.272
 1841TIP3   OH216345   1.431   1.876   1.255
 1841TIP3    H116346   1.438   1.966   1.219
 1841TIP3    H216347   1.465   1.826   1.177
 1842TIP3   OH216348   0.274   1.747   1.059
 1842TIP3    H116349   0.237   1.694   1.133
 1842TIP3    H216350   0.348   1.688   1.031
 1843TIP3   OH216351   0.473   1.602   0.923
 1843TIP3    H116352   0.452   1.510   0.950
 1843TIP3    H216353   0.562   1.615   0.966
 1844TIP3   OH216354   0.710   1.638   1.044
 1844TIP3    H116355   0.739   1.545   1.051
 1844TIP3    H216356   0.736   1.676   1.130
 1845TIP3   OH216357   1.025   0.291   0.925
 1845TIP3    H116358   0.955   0.223   0.927
 1845TIP3    H216359   1.102   0.238   0.898
 1846TIP3   OH216360   1.524   0.130   0.914
 1846TIP3    H116361   1.603   0.122   0.857
 1846TIP3    H216362   1.451   0.109   0.855
 1847TIP3   OH216363   1.750   0.115   0.740
 1847TIP3    H116364   1.805   0.050   0.695
 1847TIP3    H216365   1.811   0.193   0.751
 1848TIP3   OH216366   0.306   0.069   0.625
 1848TIP3    H116367   0.221   0.091   0.583
 1848TIP3    H216368   0.303  -0.028   0.625
 1849TIP3   OH216369   0.166   0.109   0.279
 1849TIP3    H116370   0.197   0.066   0.197
 1849TIP3    H216371   0.071   0.104   0.264
 1850TIP3   OH216372   0.745   0.164   0.657
 1850TIP3    H116373   0.823   0.162   0.598
 1850TIP3    H216374   0.787   0.135   0.741
 1851TIP3   OH216375   1.258   0.109   0.809
 1851TIP3    H116376   1.258   0.110   0.712
 1851TIP3    H216377   1.254   0.014   0.828
 1852TIP3   OH216378   1.436   0.117   0.346
 1852TIP3    H116379   1.366   0.183   0.361
 1852TIP3    H216380   1.418   0.056   0.419
 1853TIP3   OH216381   0.134   1.708   0.391
 1853TIP3    H116382   0.045   1.714   0.351
 1853TIP3    H216383   0.168   1.795   0.359
 1854TIP3   OH216384   0.316   0.303   0.071
 1854TIP3    H116385   0.355   0.215   0.079
 1854TIP3    H216386   0.332   0.339   0.159
 1855TIP3   OH216387   0.843   0.284   0.354
 1855TIP3    H116388   0.909   0.246   0.414
 1855TIP3    H216389   0.868   0.378   0.365
 1856TIP3   OH216390   1.042   1.847   0.177
 1856TIP3    H116391   1.138   1.823   0.178
 1856TIP3    H216392   1.015   1.784   0.108
 1857TIP3   OH216393   1.695   1.734   0.483
 1857TIP3    H116394   1.713   1.643   0.448
 1857TIP3    H216395   1.693   1.784   0.398
 1858TIP3   OH216396   0.268   0.131   1.605
 1858TIP3    H116397   0.251   0.060   1.540
 1858TIP3    H216398   0.354   0.105   1.642
 1859TIP3   OH216399   0.488   0.060   1.756
 1859TIP3    H116400   0.578   0.033   1.783
 1859TIP3    H216401   0.444   0.074   1.840
 1860TIP3   OH216402   0.399   1.711   0.199
 1860TIP3    H116403   0.388   1.796   0.246
 1860TIP3    H216404   0.494   1.698   0.191
 1861TIP3   OH216405   1.328   5.204   1.748
 1861TIP3    H116406   1.299   5.112   1.770
 1861TIP3    H216407   1.420   5.187   1.722
 1862TIP3   OH216408   3.118   1.019   0.683
 1862TIP3    H116409   3.111   1.108   0.722
 1862TIP3    H216410   3.043   1.022   0.621
 1863TIP3   OH216411   2.978   0.884   1.004
 1863TIP3    H116412   2.983   0.847   1.095
 1863TIP3    H216413   2.906   0.834   0.965
 1864TIP3   OH216414   2.194   0.866   1.194
 1864TIP3    H116415   2.192   0.775   1.233
 1864TIP3    H216416   2.279   0.865   1.145
 1865TIP3   OH216417   3.304   1.221   0.882
 1865TIP3    H116418   3.287   1.150   0.947
 1865TIP3    H216419   3.334   1.294   0.940
 1866TIP3   OH216420   2.274   1.339   0.979
 1866TIP3    H116421   2.252   1.246   0.958
 1866TIP3    H216422   2.365   1.325   1.011
 1867TIP3   OH216423   1.969   0.652   0.586
 1867TIP3    H116424   1.949   0.744   0.611
 1867TIP3    H216425   1.887   0.624   0.542
 1868TIP3   OH216426   2.050   0.920   0.818
 1868TIP3    H116427   2.095   0.835   0.839
 1868TIP3    H216428   2.087   0.948   0.734
 1869TIP3   OH216429   3.061   1.768   0.863
 1869TIP3    H116430   3.121   1.703   0.820
 1869TIP3    H216431   3.035   1.720   0.943
 1870TIP3   OH216432   2.803   1.107   1.106
 1870TIP3    H116433   2.848   1.035   1.058
 1870TIP3    H216434   2.879   1.157   1.144
 1871TIP3   OH216435   3.660   0.278   1.142
 1871TIP3    H116436   3.670   0.346   1.211
 1871TIP3    H216437   3.725   0.313   1.077
 1872TIP3   OH216438   3.164   0.616   1.143
 1872TIP3    H116439   3.172   0.519   1.146
 1872TIP3    H216440   3.141   0.626   1.049
 1873TIP3   OH216441   2.465   0.411   0.822
 1873TIP3    H116442   2.476   0.484   0.758
 1873TIP3    H216443   2.415   0.348   0.767
 1874TIP3   OH216444   3.186   0.423   0.684
 1874TIP3    H116445   3.239   0.414   0.767
 1874TIP3    H216446   3.245   0.485   0.639
 1875TIP3   OH216447   2.135   0.693   0.919
 1875TIP3    H116448   2.195   0.634   0.969
 1875TIP3    H216449   2.126   0.638   0.838
 1876TIP3   OH216450   2.559   0.822   0.847
 1876TIP3    H116451   2.645   0.783   0.876
 1876TIP3    H216452   2.528   0.751   0.787
 1877TIP3   OH216453   3.707   0.459   1.372
 1877TIP3    H116454   3.658   0.538   1.340
 1877TIP3    H216455   3.668   0.449   1.461
 1878TIP3   OH216456   2.357   0.328   1.232
 1878TIP3    H116457   2.302   0.382   1.174
 1878TIP3    H216458   2.301   0.324   1.312
 1879TIP3   OH216459   3.032   1.274   0.581
 1879TIP3    H116460   3.014   1.274   0.485
 1879TIP3    H216461   3.024   1.370   0.600
 1880TIP3   OH216462   2.566   1.075   1.224
 1880TIP3    H116463   2.510   1.155   1.242
 1880TIP3    H216464   2.648   1.115   1.186
 1881TIP3   OH216465   3.372   0.439   0.875
 1881TIP3    H116466   3.400   0.380   0.946
 1881TIP3    H216467   3.443   0.505   0.876
 1882TIP3   OH216468   2.306   0.514   1.021
 1882TIP3    H116469   2.371   0.566   1.075
 1882TIP3    H216470   2.363   0.479   0.949
 1883TIP3   OH216471   2.414   1.274   1.316
 1883TIP3    H116472   2.411   1.371   1.319
 1883TIP3    H216473   2.335   1.249   1.368
 1884TIP3   OH216474   2.006   1.225   0.429
 1884TIP3    H116475   2.004   1.275   0.345
 1884TIP3    H216476   2.015   1.299   0.494
 1885TIP3   OH216477   3.381   1.423   1.044
 1885TIP3    H116478   3.287   1.421   1.075
 1885TIP3    H216479   3.384   1.517   1.020
 1886TIP3   OH216480   3.424   0.351   1.278
 1886TIP3    H116481   3.350   0.366   1.215
 1886TIP3    H216482   3.486   0.300   1.223
 1887TIP3   OH216483   2.736   0.104   0.935
 1887TIP3    H116484   2.761   0.035   0.999
 1887TIP3    H216485   2.664   0.146   0.989
 1888TIP3   OH216486   3.236   1.599   0.759
 1888TIP3    H116487   3.249   1.525   0.697
 1888TIP3    H216488   3.307   1.662   0.732
 1889TIP3   OH216489   3.318   1.376   0.579
 1889TIP3    H116490   3.312   1.303   0.514
 1889TIP3    H216491   3.305   1.330   0.663
 1890TIP3   OH216492   3.501   1.244   1.447
 1890TIP3    H116493   3.495   1.173   1.379
 1890TIP3    H216494   3.524   1.316   1.385
 1891TIP3   OH216495   2.956   0.934   0.420
 1891TIP3    H116496   2.907   1.011   0.387
 1891TIP3    H216497   3.030   0.923   0.357
 1892TIP3   OH216498   2.965   0.753   0.123
 1892TIP3    H116499   3.041   0.807   0.149
 1892TIP3    H216500   3.006   0.669   0.102
 1893TIP3   OH216501   3.706   0.879   1.228
 1893TIP3    H116502   3.640   0.951   1.222
 1893TIP3    H216503   3.775   0.910   1.166
 1894TIP3   OH216504   3.324   0.918   0.516
 1894TIP3    H116505   3.250   0.958   0.566
 1894TIP3    H216506   3.382   0.889   0.591
 1895TIP3   OH216507   3.310   0.786   1.467
 1895TIP3    H116508   3.268   0.873   1.484
 1895TIP3    H216509   3.254   0.753   1.396
 1896TIP3   OH216510   2.442   1.000   0.697
 1896TIP3    H116511   2.441   0.955   0.610
 1896TIP3    H216512   2.499   0.941   0.750
 1897TIP3   OH216513   2.597   1.332   0.990
 1897TIP3    H116514   2.593   1.310   0.896
 1897TIP3    H216515   2.667   1.272   1.021
 1898TIP3   OH216516   2.447   0.879   1.089
 1898TIP3    H116517   2.492   0.877   1.001
 1898TIP3    H216518   2.496   0.950   1.138
 1899TIP3   OH216519   3.143   1.432   1.149
 1899TIP3    H116520   3.112   1.499   1.213
 1899TIP3    H216521   3.131   1.348   1.199
 1900TIP3   OH216522   2.568   1.337   1.538
 1900TIP3    H116523   2.496   1.393   1.576
 1900TIP3    H216524   2.518   1.269   1.490
 1901TIP3   OH216525   3.181   0.861   0.297
 1901TIP3    H116526   3.236   0.882   0.377
 1901TIP3    H216527   3.221   0.925   0.234
 1902TIP3   OH216528   2.267   0.995   1.470
 1902TIP3    H116529   2.235   1.086   1.482
 1902TIP3    H216530   2.187   0.941   1.483
 1903TIP3   OH216531   2.979   1.542   0.615
 1903TIP3    H116532   2.957   1.567   0.705
 1903TIP3    H216533   2.904   1.579   0.564
 1904TIP3   OH216534   2.380   1.536   1.560
 1904TIP3    H116535   2.371   1.548   1.464
 1904TIP3    H216536   2.291   1.517   1.592
 1905TIP3   OH216537   3.596   0.043   0.291
 1905TIP3    H116538   3.500   0.058   0.291
 1905TIP3    H216539   3.633   0.128   0.261
 1906TIP3   OH216540   2.366   0.878   0.458
 1906TIP3    H116541   2.314   0.959   0.453
 1906TIP3    H216542   2.302   0.813   0.427
 1907TIP3   OH216543   3.670   1.466   0.120
 1907TIP3    H116544   3.694   1.560   0.136
 1907TIP3    H216545   3.758   1.424   0.128
 1908TIP3   OH216546   1.984   1.143   1.331
 1908TIP3    H116547   1.957   1.134   1.237
 1908TIP3    H216548   2.019   1.053   1.341
 1909TIP3   OH216549   1.921   1.417   1.011
 1909TIP3    H116550   2.011   1.382   1.024
 1909TIP3    H216551   1.920   1.490   1.075
 1910TIP3   OH216552   3.739   1.503   1.583
 1910TIP3    H116553   3.718   1.409   1.578
 1910TIP3    H216554   3.659   1.539   1.626
 1911TIP3   OH216555   2.796   1.487   1.534
 1911TIP3    H116556   2.777   1.569   1.581
 1911TIP3    H216557   2.707   1.445   1.525
 1912TIP3   OH216558   2.850   1.835   0.475
 1912TIP3    H116559   2.861   1.834   0.378
 1912TIP3    H216560   2.894   1.919   0.500
 1913TIP3   OH216561   2.253   1.663   0.693
 1913TIP3    H116562   2.280   1.625   0.779
 1913TIP3    H216563   2.157   1.649   0.697
 1914TIP3   OH216564   3.204   1.834   0.207
 1914TIP3    H116565   3.196   1.748   0.160
 1914TIP3    H216566   3.206   1.803   0.300
 1915TIP3   OH216567   3.183   1.751   0.471
 1915TIP3    H116568   3.086   1.751   0.464
 1915TIP3    H216569   3.198   1.664   0.513
 1916TIP3   OH216570   2.186   1.260   1.468
 1916TIP3    H116571   2.144   1.299   1.546
 1916TIP3    H216572   2.107   1.229   1.420
 1917TIP3   OH216573   2.494   0.175   1.054
 1917TIP3    H116574   2.422   0.141   0.998
 1917TIP3    H216575   2.450   0.254   1.090
 1918TIP3   OH216576   2.991   0.132   1.373
 1918TIP3    H116577   2.923   0.107   1.440
 1918TIP3    H216578   2.944   0.105   1.294
 1919TIP3   OH216579   3.175   0.502   1.519
 1919TIP3    H116580   3.140   0.475   1.608
 1919TIP3    H216581   3.223   0.582   1.544
 1920TIP3   OH216582   3.275   1.012   0.099
 1920TIP3    H116583   3.302   0.947   0.032
 1920TIP3    H216584   3.361   1.054   0.116
 1921TIP3   OH216585   2.910   0.330   0.152
 1921TIP3    H116586   2.837   0.334   0.215
 1921TIP3    H216587   2.863   0.322   0.068
 1922TIP3   OH216588   2.467   0.634   1.195
 1922TIP3    H116589   2.448   0.655   1.288
 1922TIP3    H216590   2.457   0.725   1.158
 1923TIP3   OH216591   2.463   0.631   0.666
 1923TIP3    H116592   2.370   0.628   0.640
 1923TIP3    H216593   2.507   0.623   0.578
 1924TIP3   OH216594   3.045   0.719   0.568
 1924TIP3    H116595   3.008   0.800   0.526
 1924TIP3    H216596   3.100   0.685   0.496
 1925TIP3   OH216597   3.131   0.673   0.865
 1925TIP3    H116598   3.116   0.758   0.819
 1925TIP3    H216599   3.113   0.612   0.792
 1926TIP3   OH216600   2.190   0.623   1.321
 1926TIP3    H116601   2.248   0.656   1.393
 1926TIP3    H216602   2.169   0.533   1.352
 1927TIP3   OH216603   2.569   0.454   0.117
 1927TIP3    H116604   2.502   0.400   0.161
 1927TIP3    H216605   2.524   0.540   0.107
 1928TIP3   OH216606   1.881   0.348   0.760
 1928TIP3    H116607   1.922   0.372   0.845
 1928TIP3    H216608   1.943   0.389   0.697
 1929TIP3   OH216609   2.017   0.407   0.341
 1929TIP3    H116610   2.070   0.450   0.271
 1929TIP3    H216611   1.955   0.482   0.361
 1930TIP3   OH216612   3.010   0.801   1.260
 1930TIP3    H116613   3.078   0.733   1.242
 1930TIP3    H216614   2.953   0.753   1.325
 1931TIP3   OH216615   2.772   0.385   0.742
 1931TIP3    H116616   2.680   0.357   0.764
 1931TIP3    H216617   2.817   0.379   0.828
 1932TIP3   OH216618   2.179   0.533   0.697
 1932TIP3    H116619   2.119   0.566   0.626
 1932TIP3    H216620   2.218   0.452   0.658
 1933TIP3   OH216621   2.592   0.589   0.438
 1933TIP3    H116622   2.689   0.597   0.436
 1933TIP3    H216623   2.563   0.634   0.357
 1934TIP3   OH216624   3.202   0.337   1.107
 1934TIP3    H116625   3.123   0.338   1.165
 1934TIP3    H216626   3.170   0.282   1.034
 1935TIP3   OH216627   2.400   0.710   0.173
 1935TIP3    H116628   2.387   0.731   0.079
 1935TIP3    H216629   2.493   0.736   0.185
 1936TIP3   OH216630   2.780   0.690   0.939
 1936TIP3    H116631   2.864   0.652   0.909
 1936TIP3    H216632   2.728   0.609   0.951
 1937TIP3   OH216633   2.316   0.288   0.635
 1937TIP3    H116634   2.268   0.218   0.683
 1937TIP3    H216635   2.378   0.236   0.583
 1938TIP3   OH216636   2.683   0.488   1.176
 1938TIP3    H116637   2.598   0.538   1.186
 1938TIP3    H216638   2.749   0.557   1.194
 1939TIP3   OH216639   2.783   1.163   0.402
 1939TIP3    H116640   2.709   1.111   0.365
 1939TIP3    H216641   2.743   1.185   0.491
 1940TIP3   OH216642   3.504   1.080   1.229
 1940TIP3    H116643   3.560   1.138   1.172
 1940TIP3    H216644   3.436   1.051   1.164
 1941TIP3   OH216645   3.168   0.434   0.142
 1941TIP3    H116646   3.087   0.379   0.149
 1941TIP3    H216647   3.164   0.491   0.221
 1942TIP3   OH216648   2.845   1.163   1.509
 1942TIP3    H116649   2.797   1.138   1.590
 1942TIP3    H216650   2.827   1.258   1.504
 1943TIP3   OH216651   3.208   0.600   0.374
 1943TIP3    H116652   3.296   0.615   0.413
 1943TIP3    H216653   3.202   0.682   0.320
 1944TIP3   OH216654   2.299   1.071   0.935
 1944TIP3    H116655   2.337   1.049   0.847
 1944TIP3    H216656   2.326   0.995   0.990
 1945TIP3   OH216657   3.010   1.284   0.301
 1945TIP3    H116658   2.964   1.372   0.301
 1945TIP3    H216659   2.934   1.224   0.316
 1946TIP3   OH216660   1.992   0.859   1.477
 1946TIP3    H116661   1.941   0.812   1.545
 1946TIP3    H216662   1.959   0.818   1.395
 1947TIP3   OH216663   2.636   0.847   1.656
 1947TIP3    H116664   2.675   0.865   1.569
 1947TIP3    H216665   2.708   0.864   1.718
 1948TIP3   OH216666   3.169   1.379   1.474
 1948TIP3    H116667   3.085   1.425   1.469
 1948TIP3    H216668   3.197   1.404   1.566
 1949TIP3   OH216669   3.660   0.634   0.382
 1949TIP3    H116670   3.618   0.621   0.293
 1949TIP3    H216671   3.695   0.725   0.372
 1950TIP3   OH216672   3.717   1.172   1.595
 1950TIP3    H116673   3.626   1.189   1.562
 1950TIP3    H216674   3.772   1.178   1.514
 1951TIP3   OH216675   3.578   1.462   0.372
 1951TIP3    H116676   3.490   1.431   0.396
 1951TIP3    H216677   3.582   1.445   0.275
 1952TIP3   OH216678   3.296   0.988   1.038
 1952TIP3    H116679   3.207   0.949   1.027
 1952TIP3    H216680   3.350   0.923   0.988
 1953TIP3   OH216681   2.494   1.416   0.715
 1953TIP3    H116682   2.514   1.509   0.689
 1953TIP3    H216683   2.416   1.399   0.661
 1954TIP3   OH216684   2.130   0.894   0.206
 1954TIP3    H116685   2.161   0.987   0.216
 1954TIP3    H216686   2.034   0.909   0.202
 1955TIP3   OH216687   2.634   1.202   0.629
 1955TIP3    H116688   2.593   1.287   0.651
 1955TIP3    H216689   2.594   1.143   0.694
 1956TIP3   OH216690   2.702   1.622   1.275
 1956TIP3    H116691   2.763   1.696   1.266
 1956TIP3    H216692   2.756   1.570   1.339
 1957TIP3   OH216693   2.522   1.682   0.615
 1957TIP3    H116694   2.425   1.690   0.624
 1957TIP3    H216695   2.551   1.770   0.644
 1958TIP3   OH216696   3.016   1.188   1.251
 1958TIP3    H116697   2.983   1.173   1.342
 1958TIP3    H216698   3.057   1.102   1.231
 1959TIP3   OH216699   3.295   1.349   0.152
 1959TIP3    H116700   3.272   1.301   0.233
 1959TIP3    H216701   3.219   1.410   0.145
 1960TIP3   OH216702   3.387   1.641   1.413
 1960TIP3    H116703   3.293   1.619   1.429
 1960TIP3    H216704   3.377   1.731   1.374
 1961TIP3   OH216705   3.753   1.736   0.181
 1961TIP3    H116706   3.812   1.800   0.137
 1961TIP3    H216707   3.680   1.795   0.210
 1962TIP3   OH216708   2.176   0.340   1.454
 1962TIP3    H116709   2.096   0.380   1.492
 1962TIP3    H216710   2.149   0.246   1.458
 1963TIP3   OH216711   3.383   1.165   0.381
 1963TIP3    H116712   3.367   1.072   0.405
 1963TIP3    H216713   3.481   1.169   0.378
 1964TIP3   OH216714   2.107   1.548   1.258
 1964TIP3    H116715   2.189   1.499   1.250
 1964TIP3    H216716   2.124   1.608   1.334
 1965TIP3   OH216717   2.547   1.372   0.249
 1965TIP3    H116718   2.632   1.338   0.281
 1965TIP3    H216719   2.555   1.466   0.281
 1966TIP3   OH216720   2.206   1.134   0.280
 1966TIP3    H116721   2.138   1.148   0.350
 1966TIP3    H216722   2.248   1.222   0.278
 1967TIP3   OH216723   3.011   0.400   1.304
 1967TIP3    H116724   3.075   0.441   1.366
 1967TIP3    H216725   3.000   0.312   1.347
 1968TIP3   OH216726   3.117   0.287   0.470
 1968TIP3    H116727   3.090   0.373   0.432
 1968TIP3    H216728   3.153   0.316   0.557
 1969TIP3   OH216729   2.880   1.530   0.310
 1969TIP3    H116730   2.811   1.597   0.291
 1969TIP3    H216731   2.952   1.557   0.249
 1970TIP3   OH216732   2.859   0.506   0.507
 1970TIP3    H116733   2.926   0.563   0.551
 1970TIP3    H216734   2.814   0.467   0.585
 1971TIP3   OH216735   2.907   0.625   1.426
 1971TIP3    H116736   2.885   0.603   1.517
 1971TIP3    H216737   2.924   0.537   1.387
 1972TIP3   OH216738   2.901   0.179   0.614
 1972TIP3    H116739   2.870   0.258   0.664
 1972TIP3    H216740   2.981   0.215   0.570
 1973TIP3   OH216741   2.576   1.610   0.358
 1973TIP3    H116742   2.615   1.688   0.313
 1973TIP3    H216743   2.548   1.653   0.442
 1974TIP3   OH216744   2.390   0.294   0.322
 1974TIP3    H116745   2.404   0.368   0.383
 1974TIP3    H216746   2.473   0.245   0.336
 1975TIP3   OH216747   3.479   0.422   1.546
 1975TIP3    H116748   3.386   0.439   1.569
 1975TIP3    H216749   3.467   0.389   1.454
 1976TIP3   OH216750   3.379   0.761   0.926
 1976TIP3    H116751   3.304   0.698   0.929
 1976TIP3    H216752   3.445   0.717   0.984
 1977TIP3   OH216753   2.284   1.378   0.166
 1977TIP3    H116754   2.370   1.398   0.210
 1977TIP3    H216755   2.315   1.316   0.098
 1978TIP3   OH216756   2.080   0.631   0.191
 1978TIP3    H116757   2.145   0.703   0.211
 1978TIP3    H216758   2.000   0.686   0.194
 1979TIP3   OH216759   3.439   1.704   1.067
 1979TIP3    H116760   3.450   1.761   0.989
 1979TIP3    H216761   3.532   1.680   1.086
 1980TIP3   OH216762   2.243   0.106   0.915
 1980TIP3    H116763   2.199   0.070   0.834
 1980TIP3    H216764   2.240   0.028   0.973
 1981TIP3   OH216765   2.044   1.465   0.566
 1981TIP3    H116766   1.977   1.532   0.584
 1981TIP3    H216767   2.106   1.520   0.516
 1982TIP3   OH216768   2.012   1.744   1.691
 1982TIP3    H116769   2.060   1.676   1.741
 1982TIP3    H216770   1.922   1.719   1.719
 1983TIP3   OH216771   2.762   1.612   0.069
 1983TIP3    H116772   2.713   1.548   0.015
 1983TIP3    H216773   2.856   1.590   0.051
 1984TIP3   OH216774   3.158   1.455   1.731
 1984TIP3    H116775   3.084   1.397   1.754
 1984TIP3    H216776   3.171   1.506   1.812
 1985TIP3   OH216777   3.410   1.648   0.112
 1985TIP3    H116778   3.418   1.559   0.148
 1985TIP3    H216779   3.335   1.635   0.051
 1986TIP3   OH216780   2.472   1.092   0.061
 1986TIP3    H116781   2.456   1.025   0.129
 1986TIP3    H216782   2.548   1.138   0.100
 1987TIP3   OH216783   3.264   1.117   1.485
 1987TIP3    H116784   3.347   1.167   1.492
 1987TIP3    H216785   3.202   1.193   1.482
 1988TIP3   OH216786   2.594   0.995   0.285
 1988TIP3    H116787   2.527   0.954   0.342
 1988TIP3    H216788   2.627   0.917   0.233
 1989TIP3   OH216789   2.435   0.760   1.430
 1989TIP3    H116790   2.395   0.849   1.414
 1989TIP3    H216791   2.522   0.789   1.461
 1990TIP3   OH216792   2.666   0.763   0.169
 1990TIP3    H116793   2.663   0.784   0.072
 1990TIP3    H216794   2.758   0.731   0.175
 1991TIP3   OH216795   3.533   1.040   0.130
 1991TIP3    H116796   3.612   1.016   0.080
 1991TIP3    H216797   3.541   1.136   0.131
 1992TIP3   OH216798   2.529   0.499   1.557
 1992TIP3    H116799   2.561   0.418   1.513
 1992TIP3    H216800   2.487   0.550   1.486
 1993TIP3   OH216801   2.620   0.315   1.378
 1993TIP3    H116802   2.665   0.377   1.315
 1993TIP3    H216803   2.538   0.295   1.328
 1994TIP3   OH216804   2.708   0.909   1.400
 1994TIP3    H116805   2.793   0.953   1.421
 1994TIP3    H216806   2.664   0.976   1.342
 1995TIP3   OH216807   2.411   0.568   1.793
 1995TIP3    H116808   2.333   0.523   1.757
 1995TIP3    H216809   2.473   0.556   1.718
 1996TIP3   OH216810   2.698   0.085   1.267
 1996TIP3    H116811   2.689   0.150   1.339
 1996TIP3    H216812   2.619   0.106   1.214
 1997TIP3   OH216813   2.177   0.366   1.803
 1997TIP3    H116814   2.177   0.298   1.734
 1997TIP3    H216815   2.209   0.317   1.881
 1998TIP3   OH216816   2.811   5.211   1.528
 1998TIP3    H116817   2.788   5.219   1.622
 1998TIP3    H216818   2.723   5.202   1.489
 1999TIP3   OH216819   2.677   0.214   1.775
 1999TIP3    H116820   2.688   0.129   1.824
 1999TIP3    H216821   2.606   0.257   1.828
 2000TIP3   OH216822   2.654   1.843   0.246
 2000TIP3    H116823   2.750   1.854   0.230
 2000TIP3    H216824   2.623   1.855   0.156
 2001TIP3   OH216825   2.007   1.351   0.141
 2001TIP3    H116826   2.095   1.394   0.148
 2001TIP3    H216827   2.029   1.277   0.083
 2002TIP3   OH216828   1.900   1.836   0.636
 2002TIP3    H116829   1.830   1.782   0.594
 2002TIP3    H216830   1.924   1.783   0.715
 2003TIP3   OH216831   1.965   1.674   0.834
 2003TIP3    H116832   1.909   1.599   0.860
 2003TIP3    H216833   1.996   1.705   0.922
 2004TIP3   OH216834   3.707   1.674   1.093
 2004TIP3    H116835   3.759   1.697   1.172
 2004TIP3    H216836   3.737   1.735   1.024
 2005TIP3   OH216837   3.700   1.703   1.391
 2005TIP3    H116838   3.644   1.642   1.337
 2005TIP3    H216839   3.738   1.637   1.454
 2006TIP3   OH216840   3.650   1.137   0.391
 2006TIP3    H116841   3.731   1.188   0.413
 2006TIP3    H216842   3.637   1.081   0.469
 2007TIP3   OH216843   3.704   0.933   0.602
 2007TIP3    H116844   3.624   0.882   0.631
 2007TIP3    H216845   3.721   0.986   0.681
 2008TIP3   OH216846   3.690   1.196   1.078
 2008TIP3    H116847   3.755   1.127   1.054
 2008TIP3    H216848   3.739   1.277   1.052
 2009TIP3   OH216849   3.547   1.468   1.275
 2009TIP3    H116850   3.471   1.518   1.312
 2009TIP3    H216851   3.509   1.434   1.191
 2010TIP3   OH216852   3.723   0.888   0.265
 2010TIP3    H116853   3.634   0.899   0.225
 2010TIP3    H216854   3.727   0.973   0.313
 2011TIP3   OH216855   3.518   0.626   0.154
 2011TIP3    H116856   3.529   0.657   0.061
 2011TIP3    H216857   3.493   0.533   0.139
 2012TIP3   OH216858   3.487   0.812   0.692
 2012TIP3    H116859   3.463   0.722   0.661
 2012TIP3    H216860   3.458   0.804   0.786
 2013TIP3   OH216861   1.992   0.990   1.070
 2013TIP3    H116862   1.999   0.961   0.975
 2013TIP3    H216863   2.078   0.954   1.102
 2014TIP3   OH216864   3.484   0.355   0.124
 2014TIP3    H116865   3.568   0.308   0.141
 2014TIP3    H216866   3.422   0.310   0.183
 2015TIP3   OH216867   3.455   0.562   0.554
 2015TIP3    H116868   3.463   0.464   0.559
 2015TIP3    H216869   3.528   0.584   0.492
 2016TIP3   OH216870   3.546   0.613   1.064
 2016TIP3    H116871   3.644   0.623   1.075
 2016TIP3    H216872   3.517   0.615   1.158
 2017TIP3   OH216873   3.531   0.672   1.324
 2017TIP3    H116874   3.462   0.696   1.388
 2017TIP3    H216875   3.571   0.758   1.300
 2018TIP3   OH216876   1.957   0.481   1.645
 2018TIP3    H116877   2.028   0.458   1.709
 2018TIP3    H216878   1.883   0.428   1.681
 2019TIP3   OH216879   3.472   0.277   0.571
 2019TIP3    H116880   3.528   0.236   0.640
 2019TIP3    H216881   3.448   0.201   0.516
 2020TIP3   OH216882   2.055   0.344   0.978
 2020TIP3    H116883   2.086   0.253   0.979
 2020TIP3    H216884   2.140   0.391   0.981
 2021TIP3   OH216885   1.919   0.597   1.092
 2021TIP3    H116886   1.972   0.550   1.026
 2021TIP3    H216887   1.986   0.650   1.138
 2022TIP3   OH216888   3.741   0.260   0.170
 2022TIP3    H116889   3.803   0.238   0.098
 2022TIP3    H216890   3.795   0.322   0.224
 2023TIP3   OH216891   1.973   0.234   0.528
 2023TIP3    H116892   1.879   0.215   0.518
 2023TIP3    H216893   1.985   0.300   0.456
 2024TIP3   OH216894   3.413   1.772   0.673
 2024TIP3    H116895   3.487   1.755   0.610
 2024TIP3    H216896   3.453   1.826   0.742
 2025TIP3   OH216897   1.949   0.124   1.306
 2025TIP3    H116898   1.887   0.104   1.377
 2025TIP3    H216899   1.899   0.185   1.249
 2026TIP3   OH216900   2.426   1.565   1.295
 2026TIP3    H116901   2.422   1.664   1.288
 2026TIP3    H216902   2.523   1.555   1.286
 2027TIP3   OH216903   3.641   0.060   1.460
 2027TIP3    H116904   3.560   0.112   1.452
 2027TIP3    H216905   3.605  -0.030   1.472
 2028TIP3   OH216906   2.166   1.837   1.361
 2028TIP3    H116907   2.090   1.889   1.326
 2028TIP3    H216908   2.174   1.879   1.450
 2029TIP3   OH216909   2.406   1.837   1.248
 2029TIP3    H116910   2.309   1.842   1.269
 2029TIP3    H216911   2.417   1.901   1.175
 2030TIP3   OH216912   2.926   1.812   1.136
 2030TIP3    H116913   2.851   1.840   1.082
 2030TIP3    H216914   2.916   1.869   1.215
 2031TIP3   OH216915   3.104   1.663   1.293
 2031TIP3    H116916   3.040   1.716   1.242
 2031TIP3    H216917   3.181   1.720   1.283
 2032TIP3   OH216918   3.355   1.870   1.275
 2032TIP3    H116919   3.359   1.966   1.256
 2032TIP3    H216920   3.376   1.832   1.188
 2033TIP3   OH216921   2.131   1.729   1.050
 2033TIP3    H116922   2.110   1.684   1.135
 2033TIP3    H216923   2.214   1.682   1.022
 2034TIP3   OH216924   2.344   1.609   0.949
 2034TIP3    H116925   2.336   1.511   0.954
 2034TIP3    H216926   2.440   1.621   0.964
 2035TIP3   OH216927   2.600   1.620   1.008
 2035TIP3    H116928   2.621   1.524   1.005
 2035TIP3    H216929   2.615   1.638   1.103
 2036TIP3   OH216930   2.941   0.290   0.930
 2036TIP3    H116931   2.878   0.216   0.930
 2036TIP3    H216932   3.017   0.247   0.886
 2037TIP3   OH216933   3.416   0.075   0.905
 2037TIP3    H116934   3.488   0.109   0.847
 2037TIP3    H216935   3.339   0.086   0.847
 2038TIP3   OH216936   3.635   0.137   0.748
 2038TIP3    H116937   3.688   0.065   0.709
 2038TIP3    H216938   3.698   0.213   0.753
 2039TIP3   OH216939   2.134   0.084   0.676
 2039TIP3    H116940   2.076   0.148   0.626
 2039TIP3    H216941   2.128   0.005   0.621
 2040TIP3   OH216942   2.100   0.059   0.329
 2040TIP3    H116943   2.111   0.106   0.243
 2040TIP3    H216944   2.066   0.130   0.387
 2041TIP3   OH216945   2.632   0.142   0.672
 2041TIP3    H116946   2.718   0.141   0.626
 2041TIP3    H216947   2.662   0.141   0.765
 2042TIP3   OH216948   3.150   0.112   0.809
 2042TIP3    H116949   3.132   0.124   0.715
 2042TIP3    H216950   3.153   0.015   0.815
 2043TIP3   OH216951   3.337   0.130   0.368
 2043TIP3    H116952   3.271   0.199   0.388
 2043TIP3    H216953   3.323   0.070   0.444
 2044TIP3   OH216954   2.060   1.693   0.409
 2044TIP3    H116955   1.978   1.677   0.356
 2044TIP3    H216956   2.081   1.782   0.375
 2045TIP3   OH216957   2.201   0.256   0.130
 2045TIP3    H116958   2.254   0.190   0.084
 2045TIP3    H216959   2.264   0.280   0.201
 2046TIP3   OH216960   2.746   0.265   0.379
 2046TIP3    H116961   2.817   0.234   0.437
 2046TIP3    H216962   2.751   0.361   0.397
 2047TIP3   OH216963   2.934   1.828   0.204
 2047TIP3    H116964   3.030   1.845   0.196
 2047TIP3    H216965   2.923   1.770   0.127
 2048TIP3   OH216966   3.589   1.720   0.483
 2048TIP3    H116967   3.589   1.634   0.436
 2048TIP3    H216968   3.585   1.784   0.408
 2049TIP3   OH216969   2.108   0.104   1.618
 2049TIP3    H116970   2.084   0.013   1.597
 2049TIP3    H216971   2.188   0.085   1.674
 2050TIP3   OH216972   2.335   0.029   1.753
 2050TIP3    H116973   2.410   0.049   1.812
 2050TIP3    H216974   2.320  -0.065   1.777
 2051TIP3   OH216975   2.177   1.723   0.125
 2051TIP3    H116976   2.153   1.785   0.197
 2051TIP3    H216977   2.254   1.678   0.162
 2052TIP3   OH216978   3.194   0.066   1.744
 2052TIP3    H116979   3.167   0.042   1.835
 2052TIP3    H216980   3.284   0.031   1.745
 2053TIP3   OH216981   3.513   1.630   1.656
 2053TIP3    H116982   3.470   1.610   1.571
 2053TIP3    H216983   3.535   1.722   1.639
 2054TIP3   OH216984   4.963   1.023   0.631
 2054TIP3    H116985   4.994   1.116   0.635
 2054TIP3    H216986   4.891   1.035   0.566
 2055TIP3   OH216987   4.881   0.884   1.000
 2055TIP3    H116988   4.903   0.897   1.095
 2055TIP3    H216989   4.797   0.833   1.006
 2056TIP3   OH216990   4.079   0.866   1.173
 2056TIP3    H116991   4.071   0.807   1.251
 2056TIP3    H216992   4.175   0.882   1.167
 2057TIP3   OH216993   4.197   1.353   0.969
 2057TIP3    H116994   4.165   1.262   0.954
 2057TIP3    H216995   4.291   1.343   0.947
 2058TIP3   OH216996   3.863   0.660   0.567
 2058TIP3    H116997   3.853   0.752   0.595
 2058TIP3    H216998   3.770   0.638   0.548
 2059TIP3   OH216999   3.886   0.921   0.838
 2059TIP3    H117000   3.928   0.834   0.857
 2059TIP3    H217001   3.942   0.956   0.768
 2060TIP3   OH217002   4.986   1.704   0.881
 2060TIP3    H117003   4.916   1.649   0.843
 2060TIP3    H217004   4.972   1.688   0.976
 2061TIP3   OH217005   4.722   1.106   1.118
 2061TIP3    H117006   4.727   1.136   1.027
 2061TIP3    H217007   4.808   1.139   1.152
 2062TIP3   OH217008   4.975   0.574   1.078
 2062TIP3    H117009   5.071   0.563   1.091
 2062TIP3    H217010   4.980   0.663   1.038
 2063TIP3   OH217011   4.349   0.386   0.807
 2063TIP3    H117012   4.360   0.472   0.762
 2063TIP3    H217013   4.286   0.344   0.745
 2064TIP3   OH217014   5.025   0.427   0.656
 2064TIP3    H117015   5.074   0.373   0.721
 2064TIP3    H217016   5.096   0.492   0.634
 2065TIP3   OH217017   3.978   0.674   0.885
 2065TIP3    H117018   4.046   0.649   0.949
 2065TIP3    H217019   4.010   0.622   0.808
 2066TIP3   OH217020   4.462   0.797   0.859
 2066TIP3    H117021   4.537   0.741   0.886
 2066TIP3    H217022   4.405   0.729   0.817
 2067TIP3   OH217023   4.231   0.302   1.214
 2067TIP3    H117024   4.183   0.337   1.136
 2067TIP3    H217025   4.163   0.308   1.284
 2068TIP3   OH217026   4.939   1.304   0.578
 2068TIP3    H117027   4.923   1.298   0.482
 2068TIP3    H217028   4.894   1.389   0.599
 2069TIP3   OH217029   4.459   1.085   1.215
 2069TIP3    H117030   4.413   1.167   1.250
 2069TIP3    H217031   4.541   1.123   1.179
 2070TIP3   OH217032   4.176   0.505   1.001
 2070TIP3    H117033   4.243   0.551   1.057
 2070TIP3    H217034   4.234   0.466   0.933
 2071TIP3   OH217035   4.360   1.312   1.305
 2071TIP3    H117036   4.354   1.407   1.287
 2071TIP3    H217037   4.272   1.297   1.346
 2072TIP3   OH217038   3.898   1.230   0.424
 2072TIP3    H117039   3.892   1.276   0.338
 2072TIP3    H217040   3.911   1.306   0.486
 2073TIP3   OH217041   4.595   0.079   0.887
 2073TIP3    H117042   4.631   0.033   0.965
 2073TIP3    H217043   4.528   0.136   0.933
 2074TIP3   OH217044   5.124   1.600   0.660
 2074TIP3    H117045   5.097   1.508   0.674
 2074TIP3    H217046   5.112   1.639   0.749
 2075TIP3   OH217047   4.820   0.881   0.386
 2075TIP3    H117048   4.760   0.959   0.373
 2075TIP3    H217049   4.903   0.912   0.345
 2076TIP3   OH217050   4.829   0.759   0.102
 2076TIP3    H117051   4.867   0.757   0.191
 2076TIP3    H217052   4.844   0.668   0.072
 2077TIP3   OH217053   0.042   0.861   0.533
 2077TIP3    H117054  -0.049   0.888   0.516
 2077TIP3    H217055   0.056   0.897   0.623
 2078TIP3   OH217056   5.112   0.716   1.436
 2078TIP3    H117057   5.061   0.750   1.509
 2078TIP3    H217058   5.059   0.750   1.361
 2079TIP3   OH217059   4.368   0.971   0.676
 2079TIP3    H117060   4.330   0.925   0.599
 2079TIP3    H217061   4.420   0.902   0.722
 2080TIP3   OH217062   4.504   1.362   0.982
 2080TIP3    H117063   4.508   1.332   0.890
 2080TIP3    H217064   4.538   1.285   1.029
 2081TIP3   OH217065   4.334   0.885   1.080
 2081TIP3    H117066   4.370   0.887   0.989
 2081TIP3    H217067   4.387   0.955   1.124
 2082TIP3   OH217068   5.011   1.458   1.153
 2082TIP3    H117069   5.005   1.517   1.231
 2082TIP3    H217070   4.996   1.369   1.191
 2083TIP3   OH217071   5.064   0.927   0.248
 2083TIP3    H117072   5.158   0.947   0.266
 2083TIP3    H217073   5.039   1.006   0.196
 2084TIP3   OH217074   4.179   0.938   1.441
 2084TIP3    H117075   4.190   1.014   1.500
 2084TIP3    H217076   4.082   0.929   1.446
 2085TIP3   OH217077   4.787   1.535   0.617
 2085TIP3    H117078   4.727   1.606   0.645
 2085TIP3    H217079   4.759   1.528   0.523
 2086TIP3   OH217080   4.226   0.882   0.460
 2086TIP3    H117081   4.185   0.970   0.440
 2086TIP3    H217082   4.170   0.821   0.411
 2087TIP3   OH217083   3.850   1.163   1.347
 2087TIP3    H117084   3.808   1.169   1.259
 2087TIP3    H217085   3.913   1.089   1.333
 2088TIP3   OH217086   3.859   1.415   1.002
 2088TIP3    H117087   3.954   1.418   1.017
 2088TIP3    H217088   3.827   1.493   1.050
 2089TIP3   OH217089   4.773   1.498   1.481
 2089TIP3    H117090   4.796   1.573   1.541
 2089TIP3    H217091   4.699   1.460   1.529
 2090TIP3   OH217092   4.797   1.837   0.471
 2090TIP3    H117093   4.785   1.868   0.380
 2090TIP3    H217094   4.790   1.921   0.520
 2091TIP3   OH217095   4.157   1.724   0.677
 2091TIP3    H117096   4.173   1.675   0.761
 2091TIP3    H217097   4.136   1.652   0.613
 2092TIP3   OH217098   5.100   1.690   0.192
 2092TIP3    H117099   5.128   1.598   0.182
 2092TIP3    H217100   5.059   1.689   0.281
 2093TIP3   OH217101   5.034   1.731   0.444
 2093TIP3    H117102   4.944   1.762   0.469
 2093TIP3    H217103   5.063   1.690   0.527
 2094TIP3   OH217104   4.101   1.289   1.419
 2094TIP3    H117105   4.112   1.270   1.514
 2094TIP3    H217106   4.012   1.252   1.404
 2095TIP3   OH217107   4.400   0.157   1.063
 2095TIP3    H117108   4.332   0.151   0.994
 2095TIP3    H217109   4.343   0.182   1.139
 2096TIP3   OH217110   4.806   0.048   1.448
 2096TIP3    H117111   4.746   0.090   1.516
 2096TIP3    H217112   4.748   0.060   1.369
 2097TIP3   OH217113   5.153   0.441   1.460
 2097TIP3    H117114   5.158   0.456   1.556
 2097TIP3    H217115   5.124   0.529   1.430
 2098TIP3   OH217116   4.799   0.342   0.152
 2098TIP3    H117117   4.720   0.352   0.208
 2098TIP3    H217118   4.756   0.322   0.068
 2099TIP3   OH217119   4.365   0.622   1.158
 2099TIP3    H117120   4.299   0.621   1.230
 2099TIP3    H217121   4.356   0.715   1.129
 2100TIP3   OH217122   4.347   0.619   0.685
 2100TIP3    H117123   4.261   0.624   0.639
 2100TIP3    H217124   4.405   0.601   0.608
 2101TIP3   OH217125   4.932   0.732   0.579
 2101TIP3    H117126   4.882   0.779   0.507
 2101TIP3    H217127   4.994   0.681   0.524
 2102TIP3   OH217128   4.795   0.736   1.653
 2102TIP3    H117129   4.747   0.669   1.706
 2102TIP3    H217130   4.845   0.786   1.720
 2103TIP3   OH217131   5.063   0.690   0.839
 2103TIP3    H117132   5.141   0.704   0.784
 2103TIP3    H217133   5.035   0.603   0.808
 2104TIP3   OH217134   4.106   0.620   1.308
 2104TIP3    H117135   4.138   0.663   1.389
 2104TIP3    H217136   4.082   0.530   1.338
 2105TIP3   OH217137   4.479   0.455   0.124
 2105TIP3    H117138   4.423   0.385   0.164
 2105TIP3    H217139   4.424   0.535   0.140
 2106TIP3   OH217140   3.789   0.361   0.762
 2106TIP3    H117141   3.834   0.377   0.847
 2106TIP3    H217142   3.838   0.418   0.702
 2107TIP3   OH217143   3.876   0.433   0.335
 2107TIP3    H117144   3.933   0.478   0.269
 2107TIP3    H217145   3.828   0.509   0.371
 2108TIP3   OH217146   4.907   0.764   1.255
 2108TIP3    H117147   4.961   0.694   1.214
 2108TIP3    H217148   4.846   0.711   1.311
 2109TIP3   OH217149   4.640   0.383   0.775
 2109TIP3    H117150   4.546   0.362   0.790
 2109TIP3    H217151   4.672   0.383   0.868
 2110TIP3   OH217152   4.068   0.532   0.674
 2110TIP3    H117153   4.005   0.563   0.605
 2110TIP3    H217154   4.104   0.450   0.637
 2111TIP3   OH217155   4.449   0.552   0.435
 2111TIP3    H117156   4.545   0.567   0.429
 2111TIP3    H217157   4.415   0.617   0.371
 2112TIP3   OH217158   5.132   0.255   1.088
 2112TIP3    H117159   5.039   0.244   1.109
 2112TIP3    H217160   5.130   0.348   1.061
 2113TIP3   OH217161   4.306   0.683   0.154
 2113TIP3    H117162   4.285   0.692   0.059
 2113TIP3    H217163   4.396   0.720   0.160
 2114TIP3   OH217164   4.109   1.152   1.653
 2114TIP3    H117165   4.190   1.196   1.686
 2114TIP3    H217166   4.052   1.166   1.730
 2115TIP3   OH217167   4.743   0.657   0.936
 2115TIP3    H117168   4.818   0.596   0.953
 2115TIP3    H217169   4.684   0.618   1.004
 2116TIP3   OH217170   4.197   0.297   0.611
 2116TIP3    H117171   4.143   0.223   0.647
 2116TIP3    H217172   4.258   0.249   0.552
 2117TIP3   OH217173   4.625   0.526   1.139
 2117TIP3    H117174   4.536   0.562   1.162
 2117TIP3    H217175   4.672   0.540   1.224
 2118TIP3   OH217176   4.674   1.108   0.408
 2118TIP3    H117177   4.589   1.078   0.367
 2118TIP3    H217178   4.636   1.158   0.485
 2119TIP3   OH217179   5.091   0.413   0.217
 2119TIP3    H117180   5.004   0.415   0.174
 2119TIP3    H217181   5.091   0.499   0.262
 2120TIP3   OH217182   4.780   1.151   1.453
 2120TIP3    H117183   4.704   1.090   1.439
 2120TIP3    H217184   4.740   1.239   1.445
 2121TIP3   OH217185   5.105   0.663   0.333
 2121TIP3    H117186   5.199   0.653   0.305
 2121TIP3    H217187   5.089   0.758   0.313
 2122TIP3   OH217188   4.186   1.077   0.928
 2122TIP3    H117189   4.237   1.055   0.848
 2122TIP3    H217190   4.198   1.001   0.987
 2123TIP3   OH217191   4.857   1.269   0.311
 2123TIP3    H117192   4.815   1.355   0.331
 2123TIP3    H217193   4.783   1.207   0.329
 2124TIP3   OH217194   3.910   0.890   1.440
 2124TIP3    H117195   3.867   0.865   1.523
 2124TIP3    H217196   3.842   0.861   1.377
 2125TIP3   OH217197   4.553   0.851   1.638
 2125TIP3    H117198   4.561   0.904   1.556
 2125TIP3    H217199   4.631   0.793   1.631
 2126TIP3   OH217200   5.026   1.404   1.509
 2126TIP3    H117201   4.937   1.400   1.468
 2126TIP3    H217202   5.055   1.491   1.474
 2127TIP3   OH217203   5.085   1.018   1.100
 2127TIP3    H117204   5.057   0.982   1.015
 2127TIP3    H217205   5.178   1.040   1.078
 2128TIP3   OH217206   4.394   1.400   0.713
 2128TIP3    H117207   4.429   1.490   0.697
 2128TIP3    H217208   4.316   1.401   0.651
 2129TIP3   OH217209   4.046   0.906   0.172
 2129TIP3    H117210   4.079   0.991   0.209
 2129TIP3    H217211   3.960   0.930   0.137
 2130TIP3   OH217212   4.544   1.184   0.637
 2130TIP3    H117213   4.492   1.263   0.663
 2130TIP3    H217214   4.487   1.111   0.667
 2131TIP3   OH217215   4.625   1.632   1.284
 2131TIP3    H117216   4.678   1.709   1.262
 2131TIP3    H217217   4.686   1.586   1.346
 2132TIP3   OH217218   4.460   1.695   0.620
 2132TIP3    H117219   4.363   1.691   0.624
 2132TIP3    H217220   4.478   1.792   0.621
 2133TIP3   OH217221   4.947   1.207   1.224
 2133TIP3    H117222   4.906   1.173   1.306
 2133TIP3    H217223   4.990   1.128   1.183
 2134TIP3   OH217224   5.076   1.240   0.162
 2134TIP3    H117225   5.132   1.268   0.237
 2134TIP3    H217226   4.987   1.257   0.201
 2135TIP3   OH217227   4.015   0.344   1.379
 2135TIP3    H117228   3.935   0.397   1.389
 2135TIP3    H217229   3.975   0.254   1.373
 2136TIP3   OH217230   4.004   1.573   1.238
 2136TIP3    H117231   4.086   1.521   1.245
 2136TIP3    H217232   3.983   1.587   1.331
 2137TIP3   OH217233   4.444   1.386   0.249
 2137TIP3    H117234   4.405   1.364   0.336
 2137TIP3    H217235   4.447   1.484   0.260
 2138TIP3   OH217236   4.115   1.115   0.322
 2138TIP3    H117237   4.042   1.148   0.379
 2138TIP3    H217238   4.153   1.200   0.294
 2139TIP3   OH217239   4.854   0.348   1.435
 2139TIP3    H117240   4.948   0.324   1.428
 2139TIP3    H217241   4.811   0.261   1.439
 2140TIP3   OH217242   4.970   0.277   0.429
 2140TIP3    H117243   4.940   0.307   0.342
 2140TIP3    H217244   4.987   0.363   0.473
 2141TIP3   OH217245   4.749   1.514   0.351
 2141TIP3    H117246   4.662   1.558   0.343
 2141TIP3    H217247   4.797   1.550   0.272
 2142TIP3   OH217248   4.737   0.524   0.539
 2142TIP3    H117249   4.819   0.571   0.564
 2142TIP3    H217250   4.705   0.494   0.627
 2143TIP3   OH217251   4.738   0.585   1.397
 2143TIP3    H117252   4.729   0.608   1.490
 2143TIP3    H217253   4.780   0.496   1.404
 2144TIP3   OH217254   4.792   0.210   0.629
 2144TIP3    H117255   4.740   0.258   0.697
 2144TIP3    H217256   4.855   0.282   0.608
 2145TIP3   OH217257   4.478   1.635   0.325
 2145TIP3    H117258   4.473   1.725   0.288
 2145TIP3    H217259   4.458   1.652   0.419
 2146TIP3   OH217260   4.325   0.298   0.300
 2146TIP3    H117261   4.320   0.373   0.362
 2146TIP3    H217262   4.416   0.268   0.318
 2147TIP3   OH217263   4.179   1.369   0.194
 2147TIP3    H117264   4.198   1.415   0.279
 2147TIP3    H217265   4.268   1.356   0.157
 2148TIP3   OH217266   3.976   0.651   0.181
 2148TIP3    H117267   4.030   0.734   0.182
 2148TIP3    H217268   3.888   0.694   0.184
 2149TIP3   OH217269   4.112   0.121   0.972
 2149TIP3    H117270   4.084   0.102   0.881
 2149TIP3    H217271   4.110   0.030   1.010
 2150TIP3   OH217272   3.912   1.457   0.571
 2150TIP3    H117273   3.877   1.539   0.534
 2150TIP3    H217274   4.008   1.471   0.551
 2151TIP3   OH217275   3.928   1.719   1.662
 2151TIP3    H117276   3.941   1.710   1.757
 2151TIP3    H217277   3.897   1.629   1.637
 2152TIP3   OH217278   4.782   1.597   0.079
 2152TIP3    H117279   4.692   1.563   0.081
 2152TIP3    H217280   4.796   1.601  -0.019
 2153TIP3   OH217281   5.016   1.471   1.764
 2153TIP3    H117282   5.005   1.439   1.672
 2153TIP3    H217283   5.109   1.451   1.777
 2154TIP3   OH217284   3.920   1.153   1.861
 2154TIP3    H117285   3.903   1.073   1.809
 2154TIP3    H217286   3.846   1.210   1.836
 2155TIP3   OH217287   4.370   1.126   0.065
 2155TIP3    H117288   4.364   1.084   0.153
 2155TIP3    H217289   4.459   1.163   0.072
 2156TIP3   OH217290   5.132   1.147   1.561
 2156TIP3    H117291   5.187   1.168   1.484
 2156TIP3    H217292   5.065   1.216   1.550
 2157TIP3   OH217293   3.949   0.827   1.774
 2157TIP3    H117294   4.009   0.799   1.704
 2157TIP3    H217295   4.011   0.826   1.849
 2158TIP3   OH217296   4.468   0.987   0.286
 2158TIP3    H117297   4.395   0.953   0.341
 2158TIP3    H217298   4.500   0.906   0.241
 2159TIP3   OH217299   4.340   0.739   1.405
 2159TIP3    H117300   4.279   0.815   1.419
 2159TIP3    H217301   4.424   0.785   1.418
 2160TIP3   OH217302   4.565   0.764   0.160
 2160TIP3    H117303   4.543   0.773   0.064
 2160TIP3    H217304   4.662   0.760   0.148
 2161TIP3   OH217305   4.412   0.520   1.550
 2161TIP3    H117306   4.433   0.443   1.492
 2161TIP3    H217307   4.388   0.589   1.484
 2162TIP3   OH217308   4.469   0.335   1.348
 2162TIP3    H117309   4.522   0.324   1.268
 2162TIP3    H217310   4.379   0.313   1.316
 2163TIP3   OH217311   4.600   0.935   1.393
 2163TIP3    H117312   4.662   0.881   1.342
 2163TIP3    H217313   4.547   0.982   1.324
 2164TIP3   OH217314   4.169   0.624   1.716
 2164TIP3    H117315   4.162   0.536   1.678
 2164TIP3    H217316   4.262   0.643   1.695
 2165TIP3   OH217317   4.589   0.082   1.296
 2165TIP3    H117318   4.547   0.149   1.352
 2165TIP3    H217319   4.533   0.006   1.316
 2166TIP3   OH217320   4.624   0.539   1.734
 2166TIP3    H117321   4.564   0.588   1.793
 2166TIP3    H217322   4.556   0.497   1.675
 2167TIP3   OH217323   4.158   0.348   1.823
 2167TIP3    H117324   4.241   0.307   1.792
 2167TIP3    H217325   4.193   0.419   1.879
 2168TIP3   OH217326   4.529   1.901   0.224
 2168TIP3    H117327   4.623   1.900   0.203
 2168TIP3    H217328   4.492   1.916   0.136
 2169TIP3   OH217329   3.914   1.330   0.152
 2169TIP3    H117330   4.011   1.343   0.166
 2169TIP3    H217331   3.919   1.270   0.076
 2170TIP3   OH217332   3.766   1.849   0.632
 2170TIP3    H117333   3.709   1.786   0.582
 2170TIP3    H217334   3.810   1.788   0.695
 2171TIP3   OH217335   3.871   1.685   0.818
 2171TIP3    H117336   3.855   1.589   0.827
 2171TIP3    H217337   3.934   1.704   0.890
 2172TIP3   OH217338   3.890   1.015   1.082
 2172TIP3    H117339   3.887   0.980   0.990
 2172TIP3    H217340   3.974   0.974   1.113
 2173TIP3   OH217341   3.828   0.550   1.676
 2173TIP3    H117342   3.899   0.522   1.735
 2173TIP3    H217343   3.752   0.501   1.707
 2174TIP3   OH217344   3.943   0.337   0.998
 2174TIP3    H117345   3.995   0.256   1.013
 2174TIP3    H217346   4.014   0.402   0.995
 2175TIP3   OH217347   3.808   0.625   1.087
 2175TIP3    H117348   3.856   0.617   1.002
 2175TIP3    H217349   3.879   0.651   1.148
 2176TIP3   OH217350   3.834   0.230   0.501
 2176TIP3    H117351   3.740   0.220   0.488
 2176TIP3    H217352   3.850   0.311   0.448
 2177TIP3   OH217353   3.858   0.132   1.306
 2177TIP3    H117354   3.796   0.073   1.354
 2177TIP3    H217355   3.797   0.185   1.252
 2178TIP3   OH217356   4.361   1.587   1.275
 2178TIP3    H117357   4.346   1.683   1.287
 2178TIP3    H217358   4.459   1.586   1.285
 2179TIP3   OH217359   4.785   1.723   1.633
 2179TIP3    H117360   4.792   1.706   1.731
 2179TIP3    H217361   4.837   1.807   1.627
 2180TIP3   OH217362   4.964   1.920   1.607
 2180TIP3    H117363   5.018   1.862   1.551
 2180TIP3    H217364   5.018   1.927   1.689
 2181TIP3   OH217365   4.083   1.882   1.335
 2181TIP3    H117366   4.001   1.936   1.324
 2181TIP3    H217367   4.074   1.851   1.426
 2182TIP3   OH217368   4.331   1.856   1.236
 2182TIP3    H117369   4.245   1.884   1.277
 2182TIP3    H217370   4.311   1.866   1.142
 2183TIP3   OH217371   4.840   1.834   1.135
 2183TIP3    H117372   4.754   1.842   1.089
 2183TIP3    H217373   4.829   1.900   1.207
 2184TIP3   OH217374   4.986   1.671   1.313
 2184TIP3    H117375   4.934   1.718   1.244
 2184TIP3    H217376   5.058   1.734   1.325
 2185TIP3   OH217377   4.024   1.727   1.031
 2185TIP3    H117378   4.000   1.676   1.112
 2185TIP3    H217379   4.112   1.687   1.010
 2186TIP3   OH217380   4.236   1.618   0.924
 2186TIP3    H117381   4.227   1.523   0.948
 2186TIP3    H217382   4.333   1.630   0.932
 2187TIP3   OH217383   4.493   1.641   0.973
 2187TIP3    H117384   4.508   1.546   0.995
 2187TIP3    H217385   4.518   1.685   1.055
 2188TIP3   OH217386   4.844   0.234   0.925
 2188TIP3    H117387   4.770   0.176   0.900
 2188TIP3    H217388   4.920   0.178   0.910
 2189TIP3   OH217389   4.035   0.093   0.665
 2189TIP3    H117390   3.972   0.138   0.604
 2189TIP3    H217391   4.026   0.002   0.634
 2190TIP3   OH217392   3.967   0.075   0.298
 2190TIP3    H117393   3.958   0.104   0.206
 2190TIP3    H217394   3.910   0.138   0.347
 2191TIP3   OH217395   4.501   0.135   0.630
 2191TIP3    H117396   4.578   0.175   0.589
 2191TIP3    H217397   4.541   0.099   0.713
 2192TIP3   OH217398   5.054   0.086   0.797
 2192TIP3    H117399   5.128   0.149   0.819
 2192TIP3    H217400   5.068   0.015   0.861
 2193TIP3   OH217401   3.937   1.684   0.396
 2193TIP3    H117402   3.865   1.651   0.340
 2193TIP3    H217403   3.932   1.779   0.375
 2194TIP3   OH217404   4.076   0.275   0.108
 2194TIP3    H117405   4.147   0.208   0.103
 2194TIP3    H217406   4.115   0.341   0.165
 2195TIP3   OH217407   4.634   0.285   0.380
 2195TIP3    H117408   4.699   0.230   0.427
 2195TIP3    H217409   4.649   0.371   0.423
 2196TIP3   OH217410   4.839   1.854   0.184
 2196TIP3    H117411   4.935   1.840   0.193
 2196TIP3    H217412   4.819   1.773   0.134
 2197TIP3   OH217413   4.087   1.689   0.150
 2197TIP3    H117414   4.046   1.730   0.229
 2197TIP3    H217415   4.110   1.601   0.185
 2198TIP3   OH217416   5.064   5.209   1.862
 2198TIP3    H117417   5.034   5.119   1.883
 2198TIP3    H217418   5.070   5.204   1.765
 2199TIP3   OH217419   1.216   2.897   0.660
 2199TIP3    H117420   1.208   2.993   0.680
 2199TIP3    H217421   1.141   2.886   0.599
 2200TIP3   OH217422   1.084   2.778   1.015
 2200TIP3    H117423   1.084   2.732   1.101
 2200TIP3    H217424   1.020   2.726   0.963
 2201TIP3   OH217425   0.291   2.724   1.144
 2201TIP3    H117426   0.266   2.642   1.193
 2201TIP3    H217427   0.370   2.753   1.192
 2202TIP3   OH217428   1.383   3.085   0.883
 2202TIP3    H117429   1.364   3.010   0.940
 2202TIP3    H217430   1.415   3.152   0.947
 2203TIP3   OH217431   0.371   3.225   1.000
 2203TIP3    H117432   0.345   3.132   0.989
 2203TIP3    H217433   0.467   3.209   0.998
 2204TIP3   OH217434   0.049   2.504   0.583
 2204TIP3    H117435   0.056   2.601   0.570
 2204TIP3    H217436   0.008   2.483   0.497
 2205TIP3   OH217437   0.082   2.733   0.816
 2205TIP3    H117438   0.156   2.668   0.804
 2205TIP3    H217439   0.106   2.804   0.753
 2206TIP3   OH217440   1.203   3.658   0.863
 2206TIP3    H117441   1.271   3.591   0.839
 2206TIP3    H217442   1.139   3.597   0.903
 2207TIP3   OH217443   0.907   3.061   1.090
 2207TIP3    H117444   0.936   3.011   1.013
 2207TIP3    H217445   0.995   3.086   1.127
 2208TIP3   OH217446   1.770   2.187   1.105
 2208TIP3    H117447   1.812   2.245   1.171
 2208TIP3    H217448   1.844   2.176   1.043
 2209TIP3   OH217449   1.284   2.490   1.144
 2209TIP3    H117450   1.302   2.394   1.136
 2209TIP3    H217451   1.251   2.509   1.054
 2210TIP3   OH217452   0.558   2.290   0.819
 2210TIP3    H117453   0.572   2.371   0.765
 2210TIP3    H217454   0.510   2.234   0.755
 2211TIP3   OH217455   1.321   2.341   0.689
 2211TIP3    H117456   1.378   2.295   0.756
 2211TIP3    H217457   1.389   2.390   0.639
 2212TIP3   OH217458   0.299   2.536   0.821
 2212TIP3    H117459   0.277   2.484   0.899
 2212TIP3    H217460   0.315   2.469   0.752
 2213TIP3   OH217461   0.675   2.716   0.849
 2213TIP3    H117462   0.759   2.672   0.873
 2213TIP3    H217463   0.637   2.643   0.796
 2214TIP3   OH217464   1.817   2.331   1.360
 2214TIP3    H117465   1.763   2.409   1.331
 2214TIP3    H217466   1.811   2.344   1.456
 2215TIP3   OH217467   0.467   2.180   1.223
 2215TIP3    H117468   0.433   2.240   1.153
 2215TIP3    H217469   0.394   2.192   1.286
 2216TIP3   OH217470   1.145   3.150   0.597
 2216TIP3    H117471   1.124   3.157   0.502
 2216TIP3    H217472   1.109   3.235   0.632
 2217TIP3   OH217473   0.721   2.957   1.244
 2217TIP3    H117474   0.656   3.018   1.284
 2217TIP3    H217475   0.777   3.019   1.192
 2218TIP3   OH217476   1.521   2.269   0.841
 2218TIP3    H117477   1.529   2.232   0.930
 2218TIP3    H217478   1.610   2.299   0.822
 2219TIP3   OH217479   0.401   2.363   1.023
 2219TIP3    H117480   0.454   2.435   1.062
 2219TIP3    H217481   0.461   2.336   0.950
 2220TIP3   OH217482   0.498   3.099   1.294
 2220TIP3    H117483   0.491   3.103   1.197
 2220TIP3    H217484   0.461   3.010   1.314
 2221TIP3   OH217485   0.109   3.087   0.454
 2221TIP3    H117486   0.067   3.116   0.370
 2221TIP3    H217487   0.138   3.170   0.497
 2222TIP3   OH217488   1.496   3.279   1.066
 2222TIP3    H117489   1.404   3.308   1.092
 2222TIP3    H217490   1.524   3.358   1.019
 2223TIP3   OH217491   1.526   2.220   1.240
 2223TIP3    H117492   1.461   2.243   1.171
 2223TIP3    H217493   1.610   2.225   1.189
 2224TIP3   OH217494   0.798   1.916   0.949
 2224TIP3    H117495   0.774   1.827   0.979
 2224TIP3    H217496   0.721   1.969   0.986
 2225TIP3   OH217497   1.353   3.460   0.780
 2225TIP3    H117498   1.357   3.387   0.716
 2225TIP3    H217499   1.424   3.520   0.746
 2226TIP3   OH217500   1.437   3.250   0.586
 2226TIP3    H117501   1.412   3.192   0.512
 2226TIP3    H217502   1.400   3.199   0.661
 2227TIP3   OH217503   1.571   3.106   1.453
 2227TIP3    H117504   1.594   3.050   1.375
 2227TIP3    H217505   1.552   3.192   1.411
 2228TIP3   OH217506   1.056   2.805   0.417
 2228TIP3    H117507   1.002   2.854   0.353
 2228TIP3    H217508   1.132   2.773   0.362
 2229TIP3   OH217509   1.077   2.641   0.135
 2229TIP3    H117510   1.160   2.679   0.169
 2229TIP3    H217511   1.101   2.549   0.116
 2230TIP3   OH217512   1.805   2.771   1.250
 2230TIP3    H117513   1.733   2.835   1.241
 2230TIP3    H217514   1.866   2.803   1.179
 2231TIP3   OH217515   1.425   2.798   0.518
 2231TIP3    H117516   1.353   2.838   0.571
 2231TIP3    H217517   1.489   2.777   0.590
 2232TIP3   OH217518   1.418   2.643   1.451
 2232TIP3    H117519   1.399   2.701   1.529
 2232TIP3    H217520   1.357   2.677   1.383
 2233TIP3   OH217521   0.534   2.886   0.701
 2233TIP3    H117522   0.525   2.832   0.620
 2233TIP3    H217523   0.591   2.830   0.758
 2234TIP3   OH217524   0.692   3.213   0.985
 2234TIP3    H117525   0.710   3.176   0.898
 2234TIP3    H217526   0.764   3.176   1.039
 2235TIP3   OH217527   0.606   2.752   1.103
 2235TIP3    H117528   0.627   2.763   1.007
 2235TIP3    H217529   0.644   2.832   1.144
 2236TIP3   OH217530   1.255   3.336   1.151
 2236TIP3    H117531   1.233   3.407   1.214
 2236TIP3    H217532   1.195   3.264   1.177
 2237TIP3   OH217533   0.696   3.209   1.537
 2237TIP3    H117534   0.723   3.237   1.626
 2237TIP3    H217535   0.774   3.153   1.518
 2238TIP3   OH217536   1.292   2.753   0.296
 2238TIP3    H117537   1.347   2.768   0.378
 2238TIP3    H217538   1.327   2.823   0.237
 2239TIP3   OH217539   0.421   2.849   1.374
 2239TIP3    H117540   0.426   2.892   1.462
 2239TIP3    H217541   0.326   2.823   1.375
 2240TIP3   OH217542   1.063   3.401   0.671
 2240TIP3    H117543   1.114   3.480   0.692
 2240TIP3    H217544   1.018   3.424   0.589
 2241TIP3   OH217545   0.463   3.423   1.611
 2241TIP3    H117546   0.533   3.476   1.653
 2241TIP3    H217547   0.391   3.487   1.596
 2242TIP3   OH217548   1.704   1.914   0.271
 2242TIP3    H117549   1.613   1.946   0.291
 2242TIP3    H217550   1.746   1.992   0.231
 2243TIP3   OH217551   0.457   2.762   0.457
 2243TIP3    H117552   0.420   2.853   0.451
 2243TIP3    H217553   0.392   2.713   0.405
 2244TIP3   OH217554   1.757   3.362   0.144
 2244TIP3    H117555   1.788   3.454   0.148
 2244TIP3    H217556   1.840   3.314   0.124
 2245TIP3   OH217557   0.136   3.084   1.271
 2245TIP3    H117558   0.063   3.062   1.210
 2245TIP3    H217559   0.154   2.992   1.304
 2246TIP3   OH217560   0.099   3.309   0.980
 2246TIP3    H117561   0.156   3.233   0.958
 2246TIP3    H217562   0.110   3.317   1.076
 2247TIP3   OH217563   1.771   3.398   1.623
 2247TIP3    H117564   1.797   3.305   1.632
 2247TIP3    H217565   1.678   3.394   1.657
 2248TIP3   OH217566   1.023   3.386   1.492
 2248TIP3    H117567   1.035   3.475   1.532
 2248TIP3    H217568   0.954   3.350   1.550
 2249TIP3   OH217569   1.023   3.692   0.441
 2249TIP3    H117570   1.019   3.723   0.348
 2249TIP3    H217571   1.006   3.775   0.490
 2250TIP3   OH217572   0.393   3.557   0.701
 2250TIP3    H117573   0.424   3.528   0.790
 2250TIP3    H217574   0.296   3.543   0.710
 2251TIP3   OH217575   1.283   3.621   0.202
 2251TIP3    H117576   1.364   3.590   0.155
 2251TIP3    H217577   1.309   3.611   0.296
 2252TIP3   OH217578   1.296   3.645   0.484
 2252TIP3    H117579   1.198   3.645   0.479
 2252TIP3    H217580   1.315   3.566   0.536
 2253TIP3   OH217581   1.576   2.524   1.643
 2253TIP3    H117582   1.528   2.573   1.574
 2253TIP3    H217583   1.591   2.437   1.599
 2254TIP3   OH217584   0.288   3.229   1.467
 2254TIP3    H117585   0.305   3.145   1.514
 2254TIP3    H217586   0.222   3.199   1.400
 2255TIP3   OH217587   0.597   2.060   1.029
 2255TIP3    H117588   0.513   2.027   0.989
 2255TIP3    H217589   0.564   2.126   1.093
 2256TIP3   OH217590   1.077   1.970   1.383
 2256TIP3    H117591   1.117   1.925   1.460
 2256TIP3    H217592   0.979   1.967   1.398
 2257TIP3   OH217593   1.293   2.394   1.500
 2257TIP3    H117594   1.299   2.411   1.595
 2257TIP3    H217595   1.310   2.483   1.462
 2258TIP3   OH217596   1.370   2.909   0.095
 2258TIP3    H117597   1.387   2.841   0.029
 2258TIP3    H217598   1.462   2.942   0.108
 2259TIP3   OH217599   1.008   2.254   0.185
 2259TIP3    H117600   0.949   2.215   0.252
 2259TIP3    H217601   0.965   2.226   0.104
 2260TIP3   OH217602   0.579   2.500   1.169
 2260TIP3    H117603   0.518   2.512   1.244
 2260TIP3    H217604   0.593   2.595   1.144
 2261TIP3   OH217605   0.585   2.510   0.668
 2261TIP3    H117606   0.498   2.548   0.644
 2261TIP3    H217607   0.608   2.478   0.579
 2262TIP3   OH217608   1.164   2.616   0.579
 2262TIP3    H117609   1.114   2.687   0.532
 2262TIP3    H217610   1.212   2.574   0.507
 2263TIP3   OH217611   1.214   2.571   0.865
 2263TIP3    H117612   1.206   2.642   0.798
 2263TIP3    H217613   1.218   2.493   0.806
 2264TIP3   OH217614   0.327   2.526   1.327
 2264TIP3    H117615   0.333   2.553   1.421
 2264TIP3    H217616   0.313   2.429   1.331
 2265TIP3   OH217617   0.689   2.328   0.107
 2265TIP3    H117618   0.654   2.265   0.174
 2265TIP3    H217619   0.657   2.413   0.141
 2266TIP3   OH217620   0.073   2.198   0.733
 2266TIP3    H117621   0.125   2.194   0.816
 2266TIP3    H217622   0.067   2.104   0.711
 2267TIP3   OH217623   0.149   2.292   0.295
 2267TIP3    H117624   0.209   2.367   0.273
 2267TIP3    H217625   0.081   2.302   0.226
 2268TIP3   OH217626   1.125   2.664   1.272
 2268TIP3    H117627   1.195   2.606   1.232
 2268TIP3    H217628   1.085   2.602   1.338
 2269TIP3   OH217629   0.859   2.274   0.779
 2269TIP3    H117630   0.763   2.276   0.798
 2269TIP3    H217631   0.895   2.239   0.862
 2270TIP3   OH217632   0.322   2.435   0.568
 2270TIP3    H117633   0.225   2.433   0.558
 2270TIP3    H217634   0.345   2.340   0.578
 2271TIP3   OH217635   0.618   2.473   0.396
 2271TIP3    H117636   0.692   2.534   0.410
 2271TIP3    H217637   0.562   2.526   0.335
 2272TIP3   OH217638   1.297   2.220   1.081
 2272TIP3    H117639   1.222   2.217   1.143
 2272TIP3    H217640   1.266   2.164   1.008
 2273TIP3   OH217641   0.519   2.602   0.163
 2273TIP3    H117642   0.492   2.595   0.071
 2273TIP3    H217643   0.615   2.616   0.154
 2274TIP3   OH217644   1.581   3.782   1.698
 2274TIP3    H117645   1.639   3.789   1.619
 2274TIP3    H217646   1.647   3.779   1.768
 2275TIP3   OH217647   0.377   2.987   1.604
 2275TIP3    H117648   0.429   2.947   1.674
 2275TIP3    H217649   0.286   2.955   1.630
 2276TIP3   OH217650   0.898   2.568   0.921
 2276TIP3    H117651   0.990   2.537   0.905
 2276TIP3    H217652   0.863   2.494   0.975
 2277TIP3   OH217653   0.412   2.178   0.624
 2277TIP3    H117654   0.369   2.102   0.669
 2277TIP3    H217655   0.466   2.130   0.559
 2278TIP3   OH217656   0.820   2.370   1.172
 2278TIP3    H117657   0.739   2.427   1.173
 2278TIP3    H217658   0.881   2.421   1.227
 2279TIP3   OH217659   0.869   3.058   0.378
 2279TIP3    H117660   0.807   2.985   0.356
 2279TIP3    H217661   0.841   3.075   0.471
 2280TIP3   OH217662   1.616   2.976   1.225
 2280TIP3    H117663   1.668   3.016   1.152
 2280TIP3    H217664   1.539   2.943   1.173
 2281TIP3   OH217665   1.285   2.319   0.147
 2281TIP3    H117666   1.192   2.294   0.164
 2281TIP3    H217667   1.300   2.389   0.215
 2282TIP3   OH217668   0.954   3.088   1.510
 2282TIP3    H117669   1.004   3.009   1.483
 2282TIP3    H217670   1.027   3.147   1.536
 2283TIP3   OH217671   1.325   2.491   0.364
 2283TIP3    H117672   1.413   2.489   0.407
 2283TIP3    H217673   1.327   2.583   0.329
 2284TIP3   OH217674   0.468   2.983   0.965
 2284TIP3    H117675   0.492   2.976   0.870
 2284TIP3    H217676   0.419   2.901   0.977
 2285TIP3   OH217677   1.105   3.178   0.313
 2285TIP3    H117678   1.054   3.260   0.332
 2285TIP3    H217679   1.033   3.112   0.319
 2286TIP3   OH217680   0.150   2.839   1.401
 2286TIP3    H117681   0.156   2.806   1.492
 2286TIP3    H217682   0.065   2.800   1.375
 2287TIP3   OH217683   0.772   2.707   1.667
 2287TIP3    H117684   0.761   2.712   1.569
 2287TIP3    H217685   0.840   2.775   1.680
 2288TIP3   OH217686   1.291   3.274   1.494
 2288TIP3    H117687   1.213   3.332   1.491
 2288TIP3    H217688   1.348   3.315   1.562
 2289TIP3   OH217689   1.826   2.476   0.354
 2289TIP3    H117690   1.759   2.479   0.282
 2289TIP3    H217691   1.857   2.569   0.349
 2290TIP3   OH217692   1.822   3.071   1.576
 2290TIP3    H117693   1.745   3.111   1.530
 2290TIP3    H217694   1.881   3.051   1.501
 2291TIP3   OH217695   1.745   3.350   0.418
 2291TIP3    H117696   1.673   3.286   0.428
 2291TIP3    H217697   1.769   3.340   0.323
 2292TIP3   OH217698   1.378   2.859   1.069
 2292TIP3    H117699   1.288   2.836   1.039
 2292TIP3    H217700   1.426   2.787   1.023
 2293TIP3   OH217701   0.616   3.304   0.674
 2293TIP3    H117702   0.646   3.396   0.659
 2293TIP3    H217703   0.522   3.311   0.654
 2294TIP3   OH217704   0.172   2.836   0.224
 2294TIP3    H117705   0.235   2.877   0.286
 2294TIP3    H217706   0.135   2.914   0.179
 2295TIP3   OH217707   0.766   3.080   0.627
 2295TIP3    H117708   0.715   3.164   0.640
 2295TIP3    H217709   0.751   3.034   0.710
 2296TIP3   OH217710   0.820   3.492   1.293
 2296TIP3    H117711   0.877   3.570   1.277
 2296TIP3    H217712   0.878   3.441   1.353
 2297TIP3   OH217713   0.671   3.571   0.619
 2297TIP3    H117714   0.575   3.568   0.640
 2297TIP3    H217715   0.688   3.667   0.630
 2298TIP3   OH217716   1.159   3.071   1.192
 2298TIP3    H117717   1.138   2.999   1.254
 2298TIP3    H217718   1.249   3.047   1.165
 2299TIP3   OH217719   1.397   3.212   0.135
 2299TIP3    H117720   1.416   3.165   0.219
 2299TIP3    H217721   1.306   3.237   0.150
 2300TIP3   OH217722   1.470   3.526   1.431
 2300TIP3    H117723   1.373   3.523   1.431
 2300TIP3    H217724   1.479   3.611   1.384
 2301TIP3   OH217725   1.882   3.611   0.206
 2301TIP3    H117726   1.926   3.665   0.138
 2301TIP3    H217727   1.820   3.678   0.244
 2302TIP3   OH217728   0.263   2.271   1.383
 2302TIP3    H117729   0.184   2.323   1.407
 2302TIP3    H217730   0.263   2.205   1.453
 2303TIP3   OH217731   1.464   3.073   0.364
 2303TIP3    H117732   1.439   2.983   0.389
 2303TIP3    H217733   1.561   3.072   0.379
 2304TIP3   OH217734   0.218   3.452   1.265
 2304TIP3    H117735   0.244   3.360   1.276
 2304TIP3    H217736   0.274   3.495   1.331
 2305TIP3   OH217737   0.666   3.250   0.250
 2305TIP3    H117738   0.731   3.198   0.299
 2305TIP3    H217739   0.687   3.341   0.284
 2306TIP3   OH217740   0.336   2.990   0.375
 2306TIP3    H117741   0.248   3.026   0.401
 2306TIP3    H217742   0.371   3.069   0.328
 2307TIP3   OH217743   1.141   2.260   1.313
 2307TIP3    H117744   1.210   2.285   1.377
 2307TIP3    H217745   1.115   2.171   1.345
 2308TIP3   OH217746   1.191   2.238   0.481
 2308TIP3    H117747   1.215   2.286   0.400
 2308TIP3    H217748   1.230   2.297   0.548
 2309TIP3   OH217749   0.950   3.392   0.387
 2309TIP3    H117750   0.862   3.434   0.393
 2309TIP3    H217751   0.971   3.419   0.295
 2310TIP3   OH217752   0.924   2.382   0.537
 2310TIP3    H117753   0.994   2.444   0.564
 2310TIP3    H217754   0.890   2.348   0.623
 2311TIP3   OH217755   1.022   2.477   1.432
 2311TIP3    H117756   1.007   2.440   1.521
 2311TIP3    H217757   1.066   2.402   1.388
 2312TIP3   OH217758   1.003   2.078   0.598
 2312TIP3    H117759   0.966   2.151   0.652
 2312TIP3    H217760   1.085   2.122   0.563
 2313TIP3   OH217761   0.709   3.494   0.361
 2313TIP3    H117762   0.738   3.578   0.317
 2313TIP3    H217763   0.684   3.532   0.449
 2314TIP3   OH217764   0.572   2.184   0.308
 2314TIP3    H117765   0.564   2.259   0.369
 2314TIP3    H217766   0.655   2.142   0.341
 2315TIP3   OH217767   1.587   2.277   1.509
 2315TIP3    H117768   1.492   2.276   1.485
 2315TIP3    H217769   1.627   2.260   1.421
 2316TIP3   OH217770   1.482   2.624   0.928
 2316TIP3    H117771   1.409   2.559   0.931
 2316TIP3    H217772   1.556   2.574   0.968
 2317TIP3   OH217773   0.386   3.219   0.226
 2317TIP3    H117774   0.472   3.254   0.258
 2317TIP3    H217775   0.415   3.189   0.139
 2318TIP3   OH217776   0.201   2.548   0.209
 2318TIP3    H117777   0.241   2.636   0.213
 2318TIP3    H217778   0.168   2.554   0.117
 2319TIP3   OH217779   1.560   3.594   1.062
 2319TIP3    H117780   1.574   3.662   0.993
 2319TIP3    H217781   1.652   3.565   1.075
 2320TIP3   OH217782   0.380   1.952   0.933
 2320TIP3    H117783   0.356   1.917   0.844
 2320TIP3    H217784   0.326   1.891   0.988
 2321TIP3   OH217785   0.187   3.333   0.561
 2321TIP3    H117786   0.148   3.420   0.540
 2321TIP3    H217787   0.275   3.349   0.526
 2322TIP3   OH217788   0.210   3.691   1.730
 2322TIP3    H117789   0.260   3.653   1.803
 2322TIP3    H217790   0.120   3.663   1.757
 2323TIP3   OH217791   0.941   3.413   0.107
 2323TIP3    H117792   0.881   3.360   0.052
 2323TIP3    H217793   0.988   3.464   0.039
 2324TIP3   OH217794   1.510   3.530   0.101
 2324TIP3    H117795   1.515   3.440   0.135
 2324TIP3    H217796   1.494   3.510   0.006
 2325TIP3   OH217797   0.287   3.109   1.855
 2325TIP3    H117798   0.231   3.041   1.895
 2325TIP3    H217799   0.278   3.080   1.763
 2326TIP3   OH217800   0.592   2.981   0.071
 2326TIP3    H117801   0.598   2.928   0.153
 2326TIP3    H217802   0.680   3.023   0.076
 2327TIP3   OH217803   1.329   3.006   1.513
 2327TIP3    H117804   1.427   3.023   1.510
 2327TIP3    H217805   1.302   3.100   1.512
 2328TIP3   OH217806   0.230   2.658   1.654
 2328TIP3    H117807   0.171   2.583   1.676
 2328TIP3    H217808   0.212   2.720   1.728
 2329TIP3   OH217809   0.704   2.868   0.278
 2329TIP3    H117810   0.636   2.830   0.336
 2329TIP3    H217811   0.735   2.789   0.227
 2330TIP3   OH217812   0.568   2.635   1.436
 2330TIP3    H117813   0.500   2.697   1.402
 2330TIP3    H217814   0.649   2.673   1.396
 2331TIP3   OH217815   0.784   2.646   0.160
 2331TIP3    H117816   0.788   2.667   0.063
 2331TIP3    H217817   0.878   2.620   0.173
 2332TIP3   OH217818   1.124   2.883   1.804
 2332TIP3    H117819   1.198   2.944   1.795
 2332TIP3    H217820   1.157   2.809   1.751
 2333TIP3   OH217821   1.641   2.923   0.112
 2333TIP3    H117822   1.707   2.882   0.053
 2333TIP3    H217823   1.673   3.014   0.119
 2334TIP3   OH217824   0.737   2.187   1.357
 2334TIP3    H117825   0.781   2.250   1.297
 2334TIP3    H217826   0.647   2.187   1.320
 2335TIP3   OH217827   0.837   2.772   1.408
 2335TIP3    H117828   0.919   2.739   1.368
 2335TIP3    H217829   0.802   2.836   1.342
 2336TIP3   OH217830   1.377   2.793   1.668
 2336TIP3    H117831   1.358   2.875   1.616
 2336TIP3    H217832   1.474   2.797   1.676
 2337TIP3   OH217833   0.804   1.921   1.385
 2337TIP3    H117834   0.768   2.013   1.383
 2337TIP3    H217835   0.728   1.870   1.352
 2338TIP3   OH217836   0.762   3.745   0.268
 2338TIP3    H117837   0.847   3.787   0.251
 2338TIP3    H217838   0.724   3.755   0.180
 2339TIP3   OH217839   0.111   3.285   0.045
 2339TIP3    H117840   0.175   3.332   0.100
 2339TIP3    H217841   0.134   3.193   0.063
 2340TIP3   OH217842   0.066   3.800   0.660
 2340TIP3    H117843   0.040   3.842   0.575
 2340TIP3    H217844   0.054   3.706   0.643
 2341TIP3   OH217845   0.156   3.536   0.850
 2341TIP3    H117846   0.136   3.444   0.882
 2341TIP3    H217847   0.187   3.577   0.932
 2342TIP3   OH217848   1.834   3.644   1.082
 2342TIP3    H117849   1.845   3.623   1.176
 2342TIP3    H217850   1.880   3.730   1.076
 2343TIP3   OH217851   1.813   3.559   1.364
 2343TIP3    H117852   1.766   3.485   1.320
 2343TIP3    H217853   1.812   3.523   1.454
 2344TIP3   OH217854   1.728   3.041   0.398
 2344TIP3    H117855   1.820   3.075   0.409
 2344TIP3    H217856   1.726   2.968   0.463
 2345TIP3   OH217857   1.803   2.776   0.585
 2345TIP3    H117858   1.721   2.739   0.629
 2345TIP3    H217859   1.834   2.839   0.652
 2346TIP3   OH217860   1.782   3.060   1.041
 2346TIP3    H117861   1.855   2.995   1.035
 2346TIP3    H217862   1.831   3.145   1.035
 2347TIP3   OH217863   1.659   3.355   1.284
 2347TIP3    H117864   1.583   3.406   1.321
 2347TIP3    H217865   1.615   3.310   1.209
 2348TIP3   OH217866   1.835   2.789   0.261
 2348TIP3    H117867   1.741   2.794   0.236
 2348TIP3    H217868   1.850   2.875   0.303
 2349TIP3   OH217869   1.615   2.507   0.151
 2349TIP3    H117870   1.643   2.543   0.063
 2349TIP3    H217871   1.614   2.411   0.131
 2350TIP3   OH217872   1.584   2.693   0.698
 2350TIP3    H117873   1.543   2.612   0.662
 2350TIP3    H217874   1.563   2.683   0.793
 2351TIP3   OH217875   0.174   2.914   1.002
 2351TIP3    H117876   0.138   2.847   0.941
 2351TIP3    H217877   0.210   2.854   1.071
 2352TIP3   OH217878   1.652   2.851   1.611
 2352TIP3    H117879   1.730   2.807   1.649
 2352TIP3    H217880   1.686   2.942   1.602
 2353TIP3   OH217881   1.826   2.630   1.652
 2353TIP3    H117882   1.729   2.616   1.654
 2353TIP3    H217883   1.856   2.548   1.695
 2354TIP3   OH217884   1.608   2.241   0.122
 2354TIP3    H117885   1.689   2.188   0.137
 2354TIP3    H217886   1.540   2.194   0.173
 2355TIP3   OH217887   1.557   2.450   0.499
 2355TIP3    H117888   1.570   2.355   0.520
 2355TIP3    H217889   1.639   2.466   0.449
 2356TIP3   OH217890   1.655   2.473   1.066
 2356TIP3    H117891   1.754   2.484   1.060
 2356TIP3    H217892   1.643   2.500   1.160
 2357TIP3   OH217893   1.649   2.551   1.330
 2357TIP3    H117894   1.561   2.575   1.366
 2357TIP3    H217895   1.691   2.640   1.327
 2358TIP3   OH217896   0.096   2.404   1.703
 2358TIP3    H117897   0.141   2.430   1.786
 2358TIP3    H217898   0.028   2.344   1.737
 2359TIP3   OH217899   1.612   2.189   0.537
 2359TIP3    H117900   1.667   2.147   0.605
 2359TIP3    H217901   1.572   2.110   0.497
 2360TIP3   OH217902   0.208   2.162   0.950
 2360TIP3    H117903   0.287   2.106   0.945
 2360TIP3    H217904   0.238   2.245   0.990
 2361TIP3   OH217905   0.045   2.540   1.061
 2361TIP3    H117906   0.003   2.508   0.980
 2361TIP3    H217907   0.070   2.630   1.035
 2362TIP3   OH217908   1.766   2.126   1.702
 2362TIP3    H117909   1.724   2.208   1.673
 2362TIP3    H217910   1.755   2.069   1.623
 2363TIP3   OH217911   1.855   2.112   0.158
 2363TIP3    H117912   1.910   2.079   0.084
 2363TIP3    H217913   1.916   2.177   0.199
 2364TIP3   OH217914   0.027   2.119   0.464
 2364TIP3    H117915  -0.067   2.148   0.468
 2364TIP3    H217916   0.066   2.195   0.415
 2365TIP3   OH217917   1.516   3.634   0.681
 2365TIP3    H117918   1.577   3.620   0.605
 2365TIP3    H217919   1.566   3.692   0.742
 2366TIP3   OH217920   0.078   1.992   1.307
 2366TIP3    H117921   0.050   2.080   1.337
 2366TIP3    H217922   0.075   2.004   1.211
 2367TIP3   OH217923   0.223   3.385   1.810
 2367TIP3    H117924   0.251   3.354   1.724
 2367TIP3    H217925   0.246   3.307   1.865
 2368TIP3   OH217926   0.545   3.478   1.303
 2368TIP3    H117927   0.531   3.571   1.272
 2368TIP3    H217928   0.644   3.478   1.302
 2369TIP3   OH217929   1.028   3.625   1.626
 2369TIP3    H117930   1.054   3.600   1.716
 2369TIP3    H217931   1.108   3.675   1.599
 2370TIP3   OH217932   1.285   3.742   1.573
 2370TIP3    H117933   1.381   3.734   1.580
 2370TIP3    H217934   1.265   3.787   1.657
 2371TIP3   OH217935   1.731   1.959   1.481
 2371TIP3    H117936   1.651   1.932   1.437
 2371TIP3    H217937   1.763   1.874   1.517
 2372TIP3   OH217938   0.332   3.778   1.370
 2372TIP3    H117939   0.253   3.787   1.314
 2372TIP3    H217940   0.296   3.823   1.450
 2373TIP3   OH217941   0.563   3.737   1.247
 2373TIP3    H117942   0.477   3.755   1.293
 2373TIP3    H217943   0.556   3.796   1.170
 2374TIP3   OH217944   0.981   3.694   1.189
 2374TIP3    H117945   1.003   3.754   1.117
 2374TIP3    H217946   0.996   3.754   1.267
 2375TIP3   OH217947   1.221   3.567   1.286
 2375TIP3    H117948   1.139   3.614   1.264
 2375TIP3    H217949   1.288   3.634   1.263
 2376TIP3   OH217950   1.466   3.757   1.269
 2376TIP3    H117951   1.452   3.850   1.245
 2376TIP3    H217952   1.498   3.717   1.185
 2377TIP3   OH217953   0.299   3.621   1.074
 2377TIP3    H117954   0.261   3.570   1.150
 2377TIP3    H217955   0.372   3.561   1.047
 2378TIP3   OH217956   0.477   3.470   0.947
 2378TIP3    H117957   0.460   3.377   0.973
 2378TIP3    H217958   0.572   3.482   0.967
 2379TIP3   OH217959   0.739   3.516   1.023
 2379TIP3    H117960   0.779   3.427   1.024
 2379TIP3    H217961   0.756   3.545   1.114
 2380TIP3   OH217962   0.997   2.088   0.955
 2380TIP3    H117963   0.919   2.027   0.956
 2380TIP3    H217964   1.052   2.047   0.887
 2381TIP3   OH217965   1.570   1.921   0.903
 2381TIP3    H117966   1.640   1.973   0.855
 2381TIP3    H217967   1.490   1.972   0.881
 2382TIP3   OH217968   1.740   2.017   0.730
 2382TIP3    H117969   1.800   1.954   0.685
 2382TIP3    H217970   1.806   2.085   0.759
 2383TIP3   OH217971   0.324   1.919   0.681
 2383TIP3    H117972   0.237   1.921   0.635
 2383TIP3    H217973   0.358   1.827   0.664
 2384TIP3   OH217974   0.219   1.973   0.321
 2384TIP3    H117975   0.243   2.026   0.242
 2384TIP3    H217976   0.149   2.030   0.358
 2385TIP3   OH217977   0.699   1.952   0.680
 2385TIP3    H117978   0.780   1.987   0.641
 2385TIP3    H217979   0.714   1.962   0.776
 2386TIP3   OH217980   1.275   2.015   0.814
 2386TIP3    H117981   1.259   2.003   0.720
 2386TIP3    H217982   1.249   1.927   0.850
 2387TIP3   OH217983   1.495   1.978   0.402
 2387TIP3    H117984   1.410   2.025   0.408
 2387TIP3    H217985   1.463   1.890   0.434
 2388TIP3   OH217986   0.135   3.574   0.438
 2388TIP3    H117987   0.041   3.580   0.412
 2388TIP3    H217988   0.169   3.657   0.397
 2389TIP3   OH217989   0.319   2.121   0.115
 2389TIP3    H117990   0.387   2.084   0.060
 2389TIP3    H217991   0.372   2.159   0.188
 2390TIP3   OH217992   0.835   2.150   0.396
 2390TIP3    H117993   0.892   2.105   0.460
 2390TIP3    H217994   0.858   2.243   0.414
 2391TIP3   OH217995   1.060   3.758   0.187
 2391TIP3    H117996   1.144   3.706   0.195
 2391TIP3    H217997   1.043   3.757   0.091
 2392TIP3   OH217998   1.692   3.605   0.489
 2392TIP3    H117999   1.718   3.516   0.455
 2392TIP3    H218000   1.689   3.658   0.406
 2393TIP3   OH218001   0.296   2.061   1.672
 2393TIP3    H118002   0.225   2.007   1.711
 2393TIP3    H218003   0.286   2.141   1.728
 2394TIP3   OH218004   0.515   1.992   1.853
 2394TIP3    H118005   0.451   2.002   1.781
 2394TIP3    H218006   0.469   1.935   1.917
 2395TIP3   OH218007   0.367   3.560   0.191
 2395TIP3    H118008   0.328   3.642   0.225
 2395TIP3    H218009   0.461   3.578   0.183
 2396TIP3   OH218010   3.105   2.901   0.676
 2396TIP3    H118011   3.113   2.991   0.715
 2396TIP3    H218012   3.036   2.921   0.612
 2397TIP3   OH218013   2.982   2.774   0.988
 2397TIP3    H118014   2.971   2.739   1.080
 2397TIP3    H218015   2.899   2.747   0.944
 2398TIP3   OH218016   2.188   2.773   1.196
 2398TIP3    H118017   2.197   2.693   1.252
 2398TIP3    H218018   2.273   2.770   1.146
 2399TIP3   OH218019   3.275   3.102   0.863
 2399TIP3    H118020   3.263   3.032   0.929
 2399TIP3    H218021   3.317   3.171   0.917
 2400TIP3   OH218022   2.317   3.292   0.935
 2400TIP3    H118023   2.286   3.199   0.943
 2400TIP3    H218024   2.413   3.277   0.947
 2401TIP3   OH218025   1.966   2.551   0.577
 2401TIP3    H118026   1.918   2.635   0.587
 2401TIP3    H218027   1.895   2.497   0.539
 2402TIP3   OH218028   2.023   2.783   0.828
 2402TIP3    H118029   2.057   2.691   0.833
 2402TIP3    H218030   2.066   2.819   0.749
 2403TIP3   OH218031   3.055   3.659   0.880
 2403TIP3    H118032   3.120   3.602   0.834
 2403TIP3    H218033   3.023   3.597   0.946
 2404TIP3   OH218034   2.795   3.014   1.151
 2404TIP3    H118035   2.796   2.989   1.058
 2404TIP3    H218036   2.884   3.053   1.159
 2405TIP3   OH218037   3.653   2.146   1.136
 2405TIP3    H118038   3.681   2.229   1.181
 2405TIP3    H218039   3.719   2.143   1.066
 2406TIP3   OH218040   3.172   2.496   1.153
 2406TIP3    H118041   3.187   2.403   1.176
 2406TIP3    H218042   3.151   2.490   1.057
 2407TIP3   OH218043   2.451   2.274   0.812
 2407TIP3    H118044   2.456   2.359   0.766
 2407TIP3    H218045   2.401   2.220   0.747
 2408TIP3   OH218046   3.246   2.320   0.650
 2408TIP3    H118047   3.286   2.276   0.730
 2408TIP3    H218048   3.321   2.375   0.620
 2409TIP3   OH218049   2.116   2.543   0.892
 2409TIP3    H118050   2.174   2.496   0.954
 2409TIP3    H218051   2.129   2.488   0.811
 2410TIP3   OH218052   2.553   2.701   0.844
 2410TIP3    H118053   2.640   2.657   0.849
 2410TIP3    H218054   2.499   2.632   0.800
 2411TIP3   OH218055   3.718   2.341   1.350
 2411TIP3    H118056   3.684   2.430   1.327
 2411TIP3    H218057   3.649   2.316   1.415
 2412TIP3   OH218058   2.351   2.197   1.218
 2412TIP3    H118059   2.314   2.257   1.151
 2412TIP3    H218060   2.279   2.200   1.284
 2413TIP3   OH218061   3.021   3.144   0.610
 2413TIP3    H118062   2.945   3.139   0.551
 2413TIP3    H218063   2.989   3.213   0.672
 2414TIP3   OH218064   2.541   2.950   1.243
 2414TIP3    H118065   2.487   3.023   1.280
 2414TIP3    H218066   2.612   3.000   1.198
 2415TIP3   OH218067   3.395   2.267   0.865
 2415TIP3    H118068   3.354   2.234   0.946
 2415TIP3    H218069   3.489   2.251   0.882
 2416TIP3   OH218070   2.305   2.382   1.016
 2416TIP3    H118071   2.359   2.458   1.050
 2416TIP3    H218072   2.368   2.343   0.950
 2417TIP3   OH218073   2.414   3.175   1.341
 2417TIP3    H118074   2.391   3.266   1.316
 2417TIP3    H218075   2.332   3.146   1.387
 2418TIP3   OH218076   1.990   3.095   0.398
 2418TIP3    H118077   1.992   3.145   0.312
 2418TIP3    H218078   2.009   3.167   0.462
 2419TIP3   OH218079   3.377   3.326   1.060
 2419TIP3    H118080   3.287   3.323   1.097
 2419TIP3    H218081   3.373   3.418   1.031
 2420TIP3   OH218082   3.395   2.157   1.264
 2420TIP3    H118083   3.334   2.202   1.202
 2420TIP3    H218084   3.480   2.160   1.215
 2421TIP3   OH218085   2.684   1.925   0.970
 2421TIP3    H118086   2.662   1.831   0.972
 2421TIP3    H218087   2.596   1.964   0.992
 2422TIP3   OH218088   3.239   3.477   0.782
 2422TIP3    H118089   3.242   3.405   0.717
 2422TIP3    H218090   3.303   3.538   0.739
 2423TIP3   OH218091   3.333   3.271   0.606
 2423TIP3    H118092   3.319   3.210   0.531
 2423TIP3    H218093   3.299   3.219   0.681
 2424TIP3   OH218094   3.491   3.132   1.446
 2424TIP3    H118095   3.504   3.059   1.381
 2424TIP3    H218096   3.513   3.209   1.389
 2425TIP3   OH218097   2.935   2.787   0.381
 2425TIP3    H118098   2.878   2.862   0.355
 2425TIP3    H218099   3.023   2.813   0.341
 2426TIP3   OH218100   2.993   2.643   0.138
 2426TIP3    H118101   3.070   2.703   0.141
 2426TIP3    H218102   3.001   2.604   0.049
 2427TIP3   OH218103   3.718   2.760   1.256
 2427TIP3    H118104   3.669   2.840   1.280
 2427TIP3    H218105   3.764   2.795   1.176
 2428TIP3   OH218106   3.332   2.780   0.552
 2428TIP3    H118107   3.278   2.840   0.606
 2428TIP3    H218108   3.399   2.748   0.617
 2429TIP3   OH218109   3.310   2.672   1.452
 2429TIP3    H118110   3.247   2.718   1.509
 2429TIP3    H218111   3.260   2.664   1.370
 2430TIP3   OH218112   2.478   2.890   0.679
 2430TIP3    H118113   2.439   2.847   0.600
 2430TIP3    H218114   2.507   2.814   0.733
 2431TIP3   OH218115   2.578   3.215   0.981
 2431TIP3    H118116   2.604   3.200   0.889
 2431TIP3    H218117   2.648   3.172   1.031
 2432TIP3   OH218118   2.419   2.781   1.065
 2432TIP3    H118119   2.480   2.778   0.988
 2432TIP3    H218120   2.465   2.838   1.131
 2433TIP3   OH218121   3.135   3.338   1.166
 2433TIP3    H118122   3.071   3.382   1.221
 2433TIP3    H218123   3.106   3.244   1.172
 2434TIP3   OH218124   3.193   2.793   0.334
 2434TIP3    H118125   3.256   2.781   0.409
 2434TIP3    H218126   3.247   2.836   0.263
 2435TIP3   OH218127   2.316   2.790   1.451
 2435TIP3    H118128   2.278   2.835   1.527
 2435TIP3    H218129   2.259   2.818   1.379
 2436TIP3   OH218130   2.903   3.369   0.699
 2436TIP3    H118131   2.925   3.459   0.726
 2436TIP3    H218132   2.881   3.382   0.606
 2437TIP3   OH218133   3.565   1.914   0.296
 2437TIP3    H118134   3.473   1.919   0.264
 2437TIP3    H218135   3.608   1.990   0.252
 2438TIP3   OH218136   2.341   2.761   0.471
 2438TIP3    H118137   2.281   2.837   0.456
 2438TIP3    H218138   2.281   2.686   0.469
 2439TIP3   OH218139   3.656   3.351   0.122
 2439TIP3    H118140   3.688   3.443   0.144
 2439TIP3    H218141   3.743   3.305   0.113
 2440TIP3   OH218142   1.963   3.045   1.352
 2440TIP3    H118143   1.914   3.045   1.268
 2440TIP3    H218144   1.987   2.951   1.359
 2441TIP3   OH218145   1.936   3.289   1.023
 2441TIP3    H118146   2.026   3.254   1.018
 2441TIP3    H218147   1.949   3.360   1.087
 2442TIP3   OH218148   3.697   3.396   1.604
 2442TIP3    H118149   3.751   3.315   1.610
 2442TIP3    H218150   3.612   3.361   1.634
 2443TIP3   OH218151   2.885   3.686   0.466
 2443TIP3    H118152   2.870   3.716   0.374
 2443TIP3    H218153   2.894   3.772   0.512
 2444TIP3   OH218154   2.257   3.552   0.681
 2444TIP3    H118155   2.292   3.560   0.773
 2444TIP3    H218156   2.172   3.508   0.695
 2445TIP3   OH218157   3.159   3.608   0.175
 2445TIP3    H118158   3.244   3.568   0.149
 2445TIP3    H218159   3.179   3.636   0.266
 2446TIP3   OH218160   3.163   3.653   0.448
 2446TIP3    H118161   3.066   3.660   0.459
 2446TIP3    H218162   3.181   3.564   0.482
 2447TIP3   OH218163   2.181   3.101   1.492
 2447TIP3    H118164   2.139   3.072   1.576
 2447TIP3    H218165   2.107   3.084   1.430
 2448TIP3   OH218166   2.446   2.022   1.040
 2448TIP3    H118167   2.364   2.052   0.997
 2448TIP3    H218168   2.439   2.076   1.123
 2449TIP3   OH218169   2.899   1.912   1.416
 2449TIP3    H118170   2.900   1.946   1.507
 2449TIP3    H218171   2.816   1.951   1.382
 2450TIP3   OH218172   3.227   2.410   1.456
 2450TIP3    H118173   3.205   2.441   1.546
 2450TIP3    H218174   3.286   2.482   1.427
 2451TIP3   OH218175   3.298   2.870   0.109
 2451TIP3    H118176   3.333   2.803   0.049
 2451TIP3    H218177   3.376   2.929   0.118
 2452TIP3   OH218178   2.909   2.287   0.137
 2452TIP3    H118179   2.865   2.250   0.216
 2452TIP3    H218180   2.853   2.247   0.069
 2453TIP3   OH218181   2.461   2.538   1.168
 2453TIP3    H118182   2.392   2.524   1.237
 2453TIP3    H218183   2.447   2.634   1.151
 2454TIP3   OH218184   2.416   2.516   0.700
 2454TIP3    H118185   2.328   2.475   0.685
 2454TIP3    H218186   2.447   2.527   0.608
 2455TIP3   OH218187   3.035   2.635   0.586
 2455TIP3    H118188   2.998   2.720   0.554
 2455TIP3    H218189   3.128   2.663   0.600
 2456TIP3   OH218190   3.133   2.555   0.882
 2456TIP3    H118191   3.096   2.639   0.847
 2456TIP3    H218192   3.136   2.501   0.801
 2457TIP3   OH218193   2.244   2.511   1.323
 2457TIP3    H118194   2.271   2.552   1.408
 2457TIP3    H218195   2.199   2.430   1.355
 2458TIP3   OH218196   2.572   2.340   0.113
 2458TIP3    H118197   2.506   2.288   0.162
 2458TIP3    H218198   2.524   2.423   0.094
 2459TIP3   OH218199   1.902   2.216   0.774
 2459TIP3    H118200   1.979   2.234   0.830
 2459TIP3    H218201   1.937   2.232   0.685
 2460TIP3   OH218202   2.025   2.297   0.292
 2460TIP3    H118203   2.086   2.356   0.244
 2460TIP3    H218204   1.957   2.365   0.315
 2461TIP3   OH218205   2.989   2.669   1.238
 2461TIP3    H118206   3.065   2.609   1.217
 2461TIP3    H218207   2.953   2.623   1.317
 2462TIP3   OH218208   2.779   2.261   0.742
 2462TIP3    H118209   2.685   2.254   0.765
 2462TIP3    H218210   2.820   2.222   0.823
 2463TIP3   OH218211   2.162   2.388   0.671
 2463TIP3    H118212   2.109   2.440   0.606
 2463TIP3    H218213   2.200   2.313   0.621
 2464TIP3   OH218214   2.483   2.467   0.412
 2464TIP3    H118215   2.577   2.487   0.401
 2464TIP3    H218216   2.446   2.511   0.333
 2465TIP3   OH218217   3.190   2.221   1.092
 2465TIP3    H118218   3.119   2.231   1.159
 2465TIP3    H218219   3.143   2.167   1.025
 2466TIP3   OH218220   2.395   2.598   0.160
 2466TIP3    H118221   2.384   2.621   0.066
 2466TIP3    H218222   2.490   2.619   0.170
 2467TIP3   OH218223   2.796   2.563   0.876
 2467TIP3    H118224   2.889   2.549   0.899
 2467TIP3    H218225   2.756   2.483   0.912
 2468TIP3   OH218226   2.314   2.151   0.621
 2468TIP3    H118227   2.260   2.083   0.666
 2468TIP3    H218228   2.375   2.093   0.571
 2469TIP3   OH218229   2.667   2.373   1.216
 2469TIP3    H118230   2.589   2.430   1.193
 2469TIP3    H218231   2.740   2.424   1.180
 2470TIP3   OH218232   2.795   3.031   0.394
 2470TIP3    H118233   2.722   2.981   0.351
 2470TIP3    H218234   2.743   3.070   0.469
 2471TIP3   OH218235   3.517   2.952   1.249
 2471TIP3    H118236   3.557   2.994   1.170
 2471TIP3    H218237   3.432   2.923   1.211
 2472TIP3   OH218238   3.164   2.279   0.220
 2472TIP3    H118239   3.074   2.281   0.180
 2472TIP3    H218240   3.184   2.373   0.238
 2473TIP3   OH218241   3.215   2.513   0.345
 2473TIP3    H118242   3.289   2.494   0.407
 2473TIP3    H218243   3.259   2.586   0.299
 2474TIP3   OH218244   2.267   2.972   0.912
 2474TIP3    H118245   2.333   2.973   0.841
 2474TIP3    H218246   2.302   2.905   0.972
 2475TIP3   OH218247   3.027   3.109   0.248
 2475TIP3    H118248   3.016   3.200   0.276
 2475TIP3    H218249   2.950   3.070   0.293
 2476TIP3   OH218250   1.972   2.789   1.466
 2476TIP3    H118251   1.933   2.742   1.543
 2476TIP3    H218252   1.907   2.763   1.398
 2477TIP3   OH218253   3.148   3.252   1.547
 2477TIP3    H118254   3.143   3.322   1.479
 2477TIP3    H218255   3.225   3.277   1.599
 2478TIP3   OH218256   3.715   2.494   0.319
 2478TIP3    H118257   3.626   2.491   0.278
 2478TIP3    H218258   3.740   2.587   0.301
 2479TIP3   OH218259   3.733   3.122   1.584
 2479TIP3    H118260   3.652   3.137   1.530
 2479TIP3    H218261   3.796   3.096   1.514
 2480TIP3   OH218262   3.607   3.339   0.389
 2480TIP3    H118263   3.521   3.300   0.410
 2480TIP3    H218264   3.618   3.322   0.293
 2481TIP3   OH218265   3.268   2.873   1.083
 2481TIP3    H118266   3.179   2.849   1.056
 2481TIP3    H218267   3.317   2.798   1.043
 2482TIP3   OH218268   2.493   3.289   0.712
 2482TIP3    H118269   2.521   3.380   0.687
 2482TIP3    H218270   2.397   3.301   0.716
 2483TIP3   OH218271   2.131   2.832   0.073
 2483TIP3    H118272   2.176   2.877   0.147
 2483TIP3    H218273   2.046   2.810   0.112
 2484TIP3   OH218274   2.657   3.099   0.615
 2484TIP3    H118275   2.600   3.171   0.646
 2484TIP3    H218276   2.617   3.021   0.659
 2485TIP3   OH218277   2.692   3.510   1.335
 2485TIP3    H118278   2.760   3.563   1.288
 2485TIP3    H218279   2.747   3.470   1.404
 2486TIP3   OH218280   2.528   3.551   0.615
 2486TIP3    H118281   2.431   3.559   0.627
 2486TIP3    H218282   2.559   3.633   0.659
 2487TIP3   OH218283   3.066   3.085   1.203
 2487TIP3    H118284   3.089   3.048   1.289
 2487TIP3    H218285   3.118   3.027   1.145
 2488TIP3   OH218286   3.295   3.179   0.104
 2488TIP3    H118287   3.322   3.170   0.198
 2488TIP3    H218288   3.199   3.176   0.116
 2489TIP3   OH218289   3.360   3.530   1.489
 2489TIP3    H118290   3.264   3.528   1.468
 2489TIP3    H218291   3.383   3.606   1.432
 2490TIP3   OH218292   3.757   3.599   0.194
 2490TIP3    H118293   3.793   3.644   0.116
 2490TIP3    H218294   3.706   3.675   0.235
 2491TIP3   OH218295   2.107   2.269   1.398
 2491TIP3    H118296   2.016   2.303   1.389
 2491TIP3    H218297   2.096   2.195   1.460
 2492TIP3   OH218298   3.365   3.094   0.363
 2492TIP3    H118299   3.326   3.007   0.354
 2492TIP3    H218300   3.460   3.072   0.379
 2493TIP3   OH218301   2.112   3.466   1.256
 2493TIP3    H118302   2.183   3.402   1.269
 2493TIP3    H218303   2.146   3.542   1.307
 2494TIP3   OH218304   2.547   3.242   0.234
 2494TIP3    H118305   2.623   3.204   0.280
 2494TIP3    H218306   2.551   3.334   0.271
 2495TIP3   OH218307   2.206   2.986   0.294
 2495TIP3    H118308   2.134   3.016   0.353
 2495TIP3    H218309   2.239   3.073   0.260
 2496TIP3   OH218310   3.035   2.258   1.325
 2496TIP3    H118311   3.116   2.283   1.373
 2496TIP3    H218312   2.998   2.186   1.378
 2497TIP3   OH218313   3.076   2.221   0.470
 2497TIP3    H118314   3.120   2.239   0.385
 2497TIP3    H218315   3.145   2.253   0.532
 2498TIP3   OH218316   2.815   3.359   0.418
 2498TIP3    H118317   2.733   3.412   0.410
 2498TIP3    H218318   2.862   3.387   0.338
 2499TIP3   OH218319   2.840   2.434   0.514
 2499TIP3    H118320   2.886   2.493   0.577
 2499TIP3    H218321   2.818   2.359   0.574
 2500TIP3   OH218322   2.929   2.495   1.440
 2500TIP3    H118323   2.873   2.445   1.500
 2500TIP3    H218324   2.970   2.420   1.393
 2501TIP3   OH218325   2.898   2.068   0.594
 2501TIP3    H118326   2.846   2.130   0.650
 2501TIP3    H218327   2.974   2.126   0.567
 2502TIP3   OH218328   2.573   3.484   0.353
 2502TIP3    H118329   2.603   3.568   0.310
 2502TIP3    H218330   2.540   3.519   0.439
 2503TIP3   OH218331   2.429   2.189   0.306
 2503TIP3    H118332   2.439   2.267   0.365
 2503TIP3    H218333   2.511   2.140   0.327
 2504TIP3   OH218334   3.516   2.262   1.526
 2504TIP3    H118335   3.434   2.306   1.553
 2504TIP3    H218336   3.481   2.208   1.454
 2505TIP3   OH218337   3.385   2.644   0.950
 2505TIP3    H118338   3.302   2.593   0.960
 2505TIP3    H218339   3.450   2.579   0.984
 2506TIP3   OH218340   2.275   3.236   0.188
 2506TIP3    H118341   2.291   3.311   0.247
 2506TIP3    H218342   2.368   3.220   0.161
 2507TIP3   OH218343   2.136   2.516   0.169
 2507TIP3    H118344   2.228   2.549   0.173
 2507TIP3    H218345   2.084   2.595   0.156
 2508TIP3   OH218346   3.435   3.607   1.092
 2508TIP3    H118347   3.442   3.667   1.014
 2508TIP3    H218348   3.528   3.581   1.101
 2509TIP3   OH218349   2.173   1.984   0.999
 2509TIP3    H118350   2.174   1.968   0.903
 2509TIP3    H218351   2.164   1.892   1.031
 2510TIP3   OH218352   2.023   3.330   0.535
 2510TIP3    H118353   1.958   3.389   0.576
 2510TIP3    H218354   2.070   3.398   0.483
 2511TIP3   OH218355   2.002   3.650   1.688
 2511TIP3    H118356   1.991   3.626   1.781
 2511TIP3    H218357   1.950   3.578   1.647
 2512TIP3   OH218358   2.831   3.422   0.114
 2512TIP3    H118359   2.764   3.369   0.069
 2512TIP3    H218360   2.873   3.463   0.035
 2513TIP3   OH218361   3.413   3.540   0.092
 2513TIP3    H118362   3.463   3.460   0.114
 2513TIP3    H218363   3.376   3.514   0.005
 2514TIP3   OH218364   2.091   3.066   1.796
 2514TIP3    H118365   2.095   2.969   1.809
 2514TIP3    H218366   1.996   3.085   1.808
 2515TIP3   OH218367   2.487   2.945   0.045
 2515TIP3    H118368   2.502   2.888   0.121
 2515TIP3    H218369   2.539   3.023   0.071
 2516TIP3   OH218370   3.249   3.007   1.517
 2516TIP3    H118371   3.339   3.045   1.503
 2516TIP3    H218372   3.197   3.090   1.522
 2517TIP3   OH218373   2.097   2.794   1.788
 2517TIP3    H118374   2.099   2.731   1.714
 2517TIP3    H218375   2.033   2.752   1.846
 2518TIP3   OH218376   2.603   2.887   0.276
 2518TIP3    H118377   2.523   2.868   0.328
 2518TIP3    H218378   2.621   2.800   0.234
 2519TIP3   OH218379   2.659   2.643   0.163
 2519TIP3    H118380   2.648   2.662   0.066
 2519TIP3    H218381   2.756   2.631   0.165
 2520TIP3   OH218382   3.554   2.940   0.131
 2520TIP3    H118383   3.637   2.928   0.083
 2520TIP3    H218384   3.581   3.003   0.202
 2521TIP3   OH218385   2.516   2.434   1.541
 2521TIP3    H118386   2.527   2.338   1.528
 2521TIP3    H218387   2.584   2.470   1.484
 2522TIP3   OH218388   2.572   2.201   1.394
 2522TIP3    H118389   2.623   2.265   1.339
 2522TIP3    H218390   2.489   2.196   1.342
 2523TIP3   OH218391   2.744   2.832   1.405
 2523TIP3    H118392   2.808   2.848   1.335
 2523TIP3    H218393   2.660   2.858   1.360
 2524TIP3   OH218394   3.323   2.816   1.704
 2524TIP3    H118395   3.280   2.876   1.640
 2524TIP3    H218396   3.414   2.814   1.669
 2525TIP3   OH218397   2.675   1.980   1.285
 2525TIP3    H118398   2.634   2.061   1.324
 2525TIP3    H218399   2.606   1.915   1.301
 2526TIP3   OH218400   3.011   2.272   1.688
 2526TIP3    H118401   2.934   2.214   1.701
 2526TIP3    H218402   3.077   2.216   1.731
 2527TIP3   OH218403   2.634   3.722   0.247
 2527TIP3    H118404   2.730   3.732   0.230
 2527TIP3    H218405   2.601   3.766   0.168
 2528TIP3   OH218406   1.998   3.230   0.139
 2528TIP3    H118407   2.089   3.262   0.153
 2528TIP3    H218408   2.016   3.171   0.063
 2529TIP3   OH218409   1.899   3.715   0.612
 2529TIP3    H118410   1.824   3.658   0.583
 2529TIP3    H218411   1.932   3.661   0.687
 2530TIP3   OH218412   1.964   3.550   0.806
 2530TIP3    H118413   1.902   3.483   0.838
 2530TIP3    H218414   2.001   3.585   0.889
 2531TIP3   OH218415   3.729   3.683   1.078
 2531TIP3    H118416   3.779   3.692   1.162
 2531TIP3    H218417   3.687   3.769   1.070
 2532TIP3   OH218418   3.725   3.577   1.400
 2532TIP3    H118419   3.683   3.512   1.340
 2532TIP3    H218420   3.746   3.514   1.473
 2533TIP3   OH218421   3.442   3.202   1.843
 2533TIP3    H118422   3.352   3.203   1.882
 2533TIP3    H218423   3.460   3.108   1.856
 2534TIP3   OH218424   3.627   3.018   0.385
 2534TIP3    H118425   3.708   3.068   0.411
 2534TIP3    H218426   3.626   2.950   0.455
 2535TIP3   OH218427   3.685   2.780   0.592
 2535TIP3    H118428   3.610   2.729   0.632
 2535TIP3    H218429   3.736   2.803   0.672
 2536TIP3   OH218430   3.659   3.087   1.075
 2536TIP3    H118431   3.724   3.023   1.040
 2536TIP3    H218432   3.685   3.171   1.030
 2537TIP3   OH218433   3.550   3.358   1.294
 2537TIP3    H118434   3.490   3.417   1.343
 2537TIP3    H218435   3.500   3.343   1.212
 2538TIP3   OH218436   3.748   2.773   0.260
 2538TIP3    H118437   3.655   2.801   0.246
 2538TIP3    H218438   3.781   2.840   0.323
 2539TIP3   OH218439   3.459   2.531   0.152
 2539TIP3    H118440   3.497   2.560   0.066
 2539TIP3    H218441   3.449   2.435   0.137
 2540TIP3   OH218442   3.499   2.639   0.715
 2540TIP3    H118443   3.478   2.546   0.703
 2540TIP3    H218444   3.466   2.653   0.807
 2541TIP3   OH218445   1.978   2.882   1.076
 2541TIP3    H118446   1.998   2.847   0.985
 2541TIP3    H218447   2.061   2.854   1.123
 2542TIP3   OH218448   3.583   2.858   1.624
 2542TIP3    H118449   3.638   2.889   1.701
 2542TIP3    H218450   3.593   2.933   1.563
 2543TIP3   OH218451   3.662   2.629   1.735
 2543TIP3    H118452   3.623   2.708   1.692
 2543TIP3    H218453   3.755   2.656   1.746
 2544TIP3   OH218454   3.508   2.243   0.116
 2544TIP3    H118455   3.593   2.193   0.128
 2544TIP3    H218456   3.448   2.199   0.179
 2545TIP3   OH218457   3.438   2.459   0.491
 2545TIP3    H118458   3.469   2.366   0.505
 2545TIP3    H218459   3.525   2.499   0.470
 2546TIP3   OH218460   3.536   2.466   1.082
 2546TIP3    H118461   3.634   2.475   1.069
 2546TIP3    H218462   3.531   2.491   1.176
 2547TIP3   OH218463   3.555   2.559   1.340
 2547TIP3    H118464   3.480   2.602   1.385
 2547TIP3    H218465   3.617   2.633   1.321
 2548TIP3   OH218466   1.943   2.332   1.638
 2548TIP3    H118467   2.025   2.354   1.686
 2548TIP3    H218468   1.918   2.247   1.678
 2549TIP3   OH218469   3.538   2.216   0.526
 2549TIP3    H118470   3.560   2.164   0.606
 2549TIP3    H218471   3.474   2.154   0.485
 2550TIP3   OH218472   2.074   2.220   1.063
 2550TIP3    H118473   2.105   2.127   1.052
 2550TIP3    H218474   2.150   2.274   1.037
 2551TIP3   OH218475   1.913   2.520   1.068
 2551TIP3    H118476   1.971   2.525   0.990
 2551TIP3    H218477   1.964   2.569   1.133
 2552TIP3   OH218478   3.735   2.109   0.168
 2552TIP3    H118479   3.781   2.069   0.091
 2552TIP3    H218480   3.803   2.171   0.204
 2553TIP3   OH218481   1.945   2.135   0.486
 2553TIP3    H118482   1.863   2.102   0.449
 2553TIP3    H218483   1.979   2.188   0.411
 2554TIP3   OH218484   3.407   3.658   0.681
 2554TIP3    H118485   3.480   3.641   0.619
 2554TIP3    H218486   3.452   3.711   0.750
 2555TIP3   OH218487   1.956   1.985   1.300
 2555TIP3    H118488   1.878   1.969   1.357
 2555TIP3    H218489   1.937   2.069   1.257
 2556TIP3   OH218490   2.414   3.470   1.323
 2556TIP3    H118491   2.421   3.568   1.323
 2556TIP3    H218492   2.509   3.448   1.325
 2557TIP3   OH218493   2.884   3.566   1.659
 2557TIP3    H118494   2.876   3.567   1.755
 2557TIP3    H218495   2.972   3.608   1.648
 2558TIP3   OH218496   3.144   3.716   1.630
 2558TIP3    H118497   3.125   3.700   1.535
 2558TIP3    H218498   3.117   3.810   1.641
 2559TIP3   OH218499   3.572   1.921   1.482
 2559TIP3    H118500   3.491   1.916   1.428
 2559TIP3    H218501   3.624   1.846   1.447
 2560TIP3   OH218502   2.147   3.759   1.338
 2560TIP3    H118503   2.085   3.823   1.297
 2560TIP3    H218504   2.149   3.797   1.427
 2561TIP3   OH218505   2.401   3.728   1.240
 2561TIP3    H118506   2.308   3.747   1.266
 2561TIP3    H218507   2.413   3.790   1.163
 2562TIP3   OH218508   2.903   3.666   1.207
 2562TIP3    H118509   2.855   3.710   1.134
 2562TIP3    H218510   2.908   3.737   1.274
 2563TIP3   OH218511   3.128   3.603   1.352
 2563TIP3    H118512   3.056   3.614   1.287
 2563TIP3    H218513   3.201   3.644   1.302
 2564TIP3   OH218514   3.357   3.750   1.305
 2564TIP3    H118515   3.357   3.846   1.284
 2564TIP3    H218516   3.383   3.715   1.217
 2565TIP3   OH218517   2.129   3.637   1.040
 2565TIP3    H118518   2.098   3.595   1.123
 2565TIP3    H218519   2.222   3.604   1.033
 2566TIP3   OH218520   2.377   3.558   0.917
 2566TIP3    H118521   2.353   3.464   0.930
 2566TIP3    H218522   2.458   3.562   0.972
 2567TIP3   OH218523   2.611   3.514   1.047
 2567TIP3    H118524   2.607   3.416   1.057
 2567TIP3    H218525   2.613   3.550   1.138
 2568TIP3   OH218526   2.883   2.094   0.952
 2568TIP3    H118527   2.806   2.036   0.979
 2568TIP3    H218528   2.943   2.027   0.916
 2569TIP3   OH218529   3.469   1.917   0.891
 2569TIP3    H118530   3.536   1.976   0.848
 2569TIP3    H218531   3.385   1.956   0.856
 2570TIP3   OH218532   3.625   2.053   0.728
 2570TIP3    H118533   3.671   1.977   0.684
 2570TIP3    H218534   3.700   2.115   0.737
 2571TIP3   OH218535   2.176   1.925   0.709
 2571TIP3    H118536   2.093   1.921   0.657
 2571TIP3    H218537   2.206   1.832   0.704
 2572TIP3   OH218538   2.081   1.935   0.274
 2572TIP3    H118539   2.110   1.998   0.204
 2572TIP3    H218540   2.040   1.997   0.337
 2573TIP3   OH218541   2.610   1.920   0.692
 2573TIP3    H118542   2.693   1.914   0.642
 2573TIP3    H218543   2.642   1.924   0.784
 2574TIP3   OH218544   3.201   1.983   0.779
 2574TIP3    H118545   3.172   1.978   0.687
 2574TIP3    H218546   3.158   1.903   0.816
 2575TIP3   OH218547   3.358   2.018   0.441
 2575TIP3    H118548   3.273   2.004   0.397
 2575TIP3    H218549   3.362   1.938   0.496
 2576TIP3   OH218550   2.067   3.560   0.399
 2576TIP3    H118551   1.986   3.547   0.344
 2576TIP3    H218552   2.087   3.653   0.375
 2577TIP3   OH218553   2.233   2.102   0.121
 2577TIP3    H118554   2.309   2.054   0.086
 2577TIP3    H218555   2.275   2.150   0.195
 2578TIP3   OH218556   2.767   2.170   0.365
 2578TIP3    H118557   2.811   2.116   0.433
 2578TIP3    H218558   2.771   2.258   0.404
 2579TIP3   OH218559   2.899   3.683   0.186
 2579TIP3    H118560   2.993   3.674   0.161
 2579TIP3    H218561   2.870   3.591   0.169
 2580TIP3   OH218562   3.569   3.605   0.479
 2580TIP3    H118563   3.576   3.520   0.431
 2580TIP3    H218564   3.578   3.671   0.408
 2581TIP3   OH218565   2.163   1.963   1.599
 2581TIP3    H118566   2.101   1.894   1.631
 2581TIP3    H218567   2.226   1.959   1.671
 2582TIP3   OH218568   2.248   3.572   0.145
 2582TIP3    H118569   2.208   3.630   0.212
 2582TIP3    H218570   2.343   3.591   0.151
 2583TIP3   OH218571   5.000   2.911   0.649
 2583TIP3    H118572   4.988   3.008   0.664
 2583TIP3    H218573   4.910   2.888   0.623
 2584TIP3   OH218574   4.821   2.776   1.025
 2584TIP3    H118575   4.837   2.736   1.114
 2584TIP3    H218576   4.775   2.704   0.978
 2585TIP3   OH218577   4.091   2.785   1.198
 2585TIP3    H118578   4.078   2.697   1.237
 2585TIP3    H218579   4.184   2.778   1.168
 2586TIP3   OH218580   4.176   3.290   0.989
 2586TIP3    H118581   4.126   3.210   0.969
 2586TIP3    H218582   4.267   3.254   0.987
 2587TIP3   OH218583   3.845   2.534   0.573
 2587TIP3    H118584   3.811   2.620   0.601
 2587TIP3    H218585   3.815   2.531   0.481
 2588TIP3   OH218586   3.892   2.770   0.817
 2588TIP3    H118587   3.940   2.685   0.834
 2588TIP3    H218588   3.960   2.824   0.773
 2589TIP3   OH218589   4.948   3.578   0.902
 2589TIP3    H118590   4.995   3.523   0.837
 2589TIP3    H218591   4.944   3.520   0.980
 2590TIP3   OH218592   4.704   3.021   1.110
 2590TIP3    H118593   4.746   2.937   1.080
 2590TIP3    H218594   4.783   3.078   1.118
 2591TIP3   OH218595   4.965   2.480   1.107
 2591TIP3    H118596   5.050   2.434   1.126
 2591TIP3    H218597   4.990   2.531   1.028
 2592TIP3   OH218598   4.342   2.280   0.805
 2592TIP3    H118599   4.341   2.361   0.752
 2592TIP3    H218600   4.291   2.220   0.746
 2593TIP3   OH218601   5.049   2.339   0.684
 2593TIP3    H118602   5.123   2.280   0.715
 2593TIP3    H218603   5.106   2.412   0.651
 2594TIP3   OH218604   4.020   2.552   0.897
 2594TIP3    H118605   4.066   2.492   0.960
 2594TIP3    H218606   4.049   2.515   0.811
 2595TIP3   OH218607   4.471   2.695   0.846
 2595TIP3    H118608   4.548   2.648   0.882
 2595TIP3    H218609   4.427   2.623   0.796
 2596TIP3   OH218610   4.242   2.213   1.228
 2596TIP3    H118611   4.210   2.252   1.144
 2596TIP3    H218612   4.188   2.265   1.289
 2597TIP3   OH218613   4.918   3.163   0.593
 2597TIP3    H118614   4.877   3.156   0.506
 2597TIP3    H218615   4.880   3.247   0.625
 2598TIP3   OH218616   4.448   2.971   1.186
 2598TIP3    H118617   4.395   3.049   1.213
 2598TIP3    H218618   4.533   3.010   1.156
 2599TIP3   OH218619   4.186   2.369   1.005
 2599TIP3    H118620   4.242   2.436   1.053
 2599TIP3    H218621   4.248   2.339   0.935
 2600TIP3   OH218622   4.303   3.160   1.306
 2600TIP3    H118623   4.258   3.212   1.239
 2600TIP3    H218624   4.231   3.135   1.368
 2601TIP3   OH218625   3.881   3.096   0.414
 2601TIP3    H118626   3.884   3.151   0.334
 2601TIP3    H218627   3.902   3.167   0.480
 2602TIP3   OH218628   4.571   1.956   0.987
 2602TIP3    H118629   4.534   1.892   0.924
 2602TIP3    H218630   4.487   2.006   1.008
 2603TIP3   OH218631   5.117   3.496   0.708
 2603TIP3    H118632   5.120   3.400   0.696
 2603TIP3    H218633   5.207   3.513   0.746
 2604TIP3   OH218634   4.802   2.782   0.392
 2604TIP3    H118635   4.723   2.833   0.368
 2604TIP3    H218636   4.870   2.823   0.337
 2605TIP3   OH218637   4.813   2.558   0.181
 2605TIP3    H118638   4.867   2.629   0.221
 2605TIP3    H218639   4.872   2.529   0.111
 2606TIP3   OH218640   5.191   2.766   0.507
 2606TIP3    H118641   5.125   2.813   0.565
 2606TIP3    H218642   5.252   2.840   0.488
 2607TIP3   OH218643   5.124   2.631   1.422
 2607TIP3    H118644   5.085   2.695   1.483
 2607TIP3    H218645   5.088   2.662   1.338
 2608TIP3   OH218646   4.329   2.869   0.690
 2608TIP3    H118647   4.320   2.828   0.602
 2608TIP3    H218648   4.393   2.810   0.736
 2609TIP3   OH218649   4.447   3.226   0.960
 2609TIP3    H118650   4.458   3.219   0.862
 2609TIP3    H218651   4.529   3.186   0.994
 2610TIP3   OH218652   4.335   2.762   1.074
 2610TIP3    H118653   4.388   2.753   0.992
 2610TIP3    H218654   4.388   2.831   1.121
 2611TIP3   OH218655   4.975   3.340   1.163
 2611TIP3    H118656   5.001   3.384   1.246
 2611TIP3    H218657   4.963   3.246   1.188
 2612TIP3   OH218658   4.492   3.224   1.495
 2612TIP3    H118659   4.431   3.224   1.571
 2612TIP3    H218660   4.434   3.190   1.424
 2613TIP3   OH218661   5.057   2.765   0.257
 2613TIP3    H118662   5.099   2.769   0.346
 2613TIP3    H218663   5.097   2.840   0.211
 2614TIP3   OH218664   4.155   2.750   1.479
 2614TIP3    H118665   4.179   2.843   1.492
 2614TIP3    H218666   4.057   2.755   1.485
 2615TIP3   OH218667   4.797   3.403   0.658
 2615TIP3    H118668   4.847   3.486   0.656
 2615TIP3    H218669   4.741   3.408   0.577
 2616TIP3   OH218670   4.289   3.343   1.629
 2616TIP3    H118671   4.331   3.401   1.565
 2616TIP3    H218672   4.195   3.363   1.616
 2617TIP3   OH218673   4.233   2.769   0.442
 2617TIP3    H118674   4.169   2.842   0.442
 2617TIP3    H218675   4.176   2.691   0.448
 2618TIP3   OH218676   3.841   3.049   1.345
 2618TIP3    H118677   3.797   3.068   1.261
 2618TIP3    H218678   3.899   2.975   1.320
 2619TIP3   OH218679   3.817   3.305   1.023
 2619TIP3    H118680   3.881   3.249   1.069
 2619TIP3    H218681   3.824   3.384   1.078
 2620TIP3   OH218682   4.742   3.307   1.478
 2620TIP3    H118683   4.734   3.387   1.532
 2620TIP3    H218684   4.649   3.273   1.480
 2621TIP3   OH218685   4.781   3.692   0.456
 2621TIP3    H118686   4.793   3.727   0.365
 2621TIP3    H218687   4.758   3.773   0.506
 2622TIP3   OH218688   4.158   3.560   0.676
 2622TIP3    H118689   4.184   3.568   0.771
 2622TIP3    H218690   4.072   3.515   0.684
 2623TIP3   OH218691   5.068   3.575   0.192
 2623TIP3    H118692   5.131   3.501   0.183
 2623TIP3    H218693   5.057   3.580   0.289
 2624TIP3   OH218694   5.033   3.596   0.468
 2624TIP3    H118695   4.937   3.620   0.472
 2624TIP3    H218696   5.053   3.574   0.562
 2625TIP3   OH218697   4.090   3.129   1.481
 2625TIP3    H118698   4.088   3.162   1.574
 2625TIP3    H218699   3.998   3.139   1.455
 2626TIP3   OH218700   4.334   2.060   1.029
 2626TIP3    H118701   4.241   2.042   1.004
 2626TIP3    H218702   4.321   2.101   1.118
 2627TIP3   OH218703   4.799   1.986   1.354
 2627TIP3    H118704   4.828   1.993   1.447
 2627TIP3    H218705   4.701   1.983   1.367
 2628TIP3   OH218706   5.106   2.355   1.438
 2628TIP3    H118707   5.078   2.340   1.530
 2628TIP3    H218708   5.128   2.450   1.444
 2629TIP3   OH218709   4.800   2.233   0.151
 2629TIP3    H118710   4.729   2.253   0.216
 2629TIP3    H218711   4.765   2.153   0.109
 2630TIP3   OH218712   4.336   2.513   1.165
 2630TIP3    H118713   4.293   2.521   1.253
 2630TIP3    H218714   4.334   2.607   1.136
 2631TIP3   OH218715   4.340   2.510   0.669
 2631TIP3    H118716   4.246   2.493   0.647
 2631TIP3    H218717   4.384   2.494   0.582
 2632TIP3   OH218718   4.920   2.624   0.567
 2632TIP3    H118719   4.875   2.687   0.505
 2632TIP3    H218720   4.966   2.564   0.506
 2633TIP3   OH218721   4.836   2.637   1.652
 2633TIP3    H118722   4.777   2.591   1.715
 2633TIP3    H218723   4.921   2.630   1.695
 2634TIP3   OH218724   4.997   2.561   0.848
 2634TIP3    H118725   5.015   2.637   0.788
 2634TIP3    H218726   5.003   2.485   0.787
 2635TIP3   OH218727   4.084   2.514   1.323
 2635TIP3    H118728   4.106   2.575   1.396
 2635TIP3    H218729   4.051   2.436   1.373
 2636TIP3   OH218730   4.490   2.337   0.114
 2636TIP3    H118731   4.482   2.263   0.176
 2636TIP3    H218732   4.407   2.384   0.130
 2637TIP3   OH218733   3.821   2.226   0.768
 2637TIP3    H118734   3.907   2.221   0.811
 2637TIP3    H218735   3.842   2.239   0.673
 2638TIP3   OH218736   3.910   2.296   0.263
 2638TIP3    H118737   3.986   2.342   0.223
 2638TIP3    H218738   3.853   2.374   0.273
 2639TIP3   OH218739   4.898   2.692   1.267
 2639TIP3    H118740   4.947   2.621   1.221
 2639TIP3    H218741   4.841   2.639   1.326
 2640TIP3   OH218742   4.626   2.257   0.769
 2640TIP3    H118743   4.532   2.278   0.786
 2640TIP3    H218744   4.664   2.255   0.858
 2641TIP3   OH218745   4.082   2.442   0.637
 2641TIP3    H118746   3.990   2.461   0.608
 2641TIP3    H218747   4.090   2.345   0.627
 2642TIP3   OH218748   4.455   2.468   0.427
 2642TIP3    H118749   4.550   2.479   0.447
 2642TIP3    H218750   4.443   2.530   0.353
 2643TIP3   OH218751   5.073   2.203   1.096
 2643TIP3    H118752   4.989   2.195   1.146
 2643TIP3    H218753   5.046   2.197   1.003
 2644TIP3   OH218754   4.286   2.584   0.164
 2644TIP3    H118755   4.279   2.576   0.068
 2644TIP3    H218756   4.381   2.604   0.176
 2645TIP3   OH218757   4.731   2.510   0.955
 2645TIP3    H118758   4.828   2.498   0.951
 2645TIP3    H218759   4.710   2.470   1.040
 2646TIP3   OH218760   4.173   2.195   0.606
 2646TIP3    H118761   4.132   2.110   0.633
 2646TIP3    H218762   4.190   2.182   0.512
 2647TIP3   OH218763   4.549   2.358   1.192
 2647TIP3    H118764   4.473   2.419   1.192
 2647TIP3    H218765   4.618   2.405   1.241
 2648TIP3   OH218766   4.642   3.050   0.371
 2648TIP3    H118767   4.569   2.987   0.353
 2648TIP3    H218768   4.616   3.079   0.463
 2649TIP3   OH218769   5.077   2.290   0.160
 2649TIP3    H118770   4.985   2.256   0.155
 2649TIP3    H218771   5.066   2.365   0.220
 2650TIP3   OH218772   4.759   3.035   1.436
 2650TIP3    H118773   4.752   3.022   1.531
 2650TIP3    H218774   4.733   3.129   1.426
 2651TIP3   OH218775   5.116   2.493   0.354
 2651TIP3    H118776   5.204   2.465   0.322
 2651TIP3    H218777   5.115   2.586   0.325
 2652TIP3   OH218778   4.166   2.960   0.915
 2652TIP3    H118779   4.221   2.953   0.833
 2652TIP3    H218780   4.201   2.889   0.971
 2653TIP3   OH218781   4.886   3.151   0.271
 2653TIP3    H118782   4.843   3.236   0.254
 2653TIP3    H218783   4.807   3.098   0.295
 2654TIP3   OH218784   3.886   2.702   1.464
 2654TIP3    H118785   3.819   2.712   1.533
 2654TIP3    H218786   3.835   2.720   1.382
 2655TIP3   OH218787   5.049   3.283   1.522
 2655TIP3    H118788   4.996   3.268   1.443
 2655TIP3    H218789   5.009   3.366   1.552
 2656TIP3   OH218790   5.083   2.869   1.089
 2656TIP3    H118791   4.999   2.843   1.046
 2656TIP3    H218792   5.139   2.892   1.013
 2657TIP3   OH218793   4.380   3.300   0.689
 2657TIP3    H118794   4.410   3.391   0.664
 2657TIP3    H218795   4.292   3.301   0.652
 2658TIP3   OH218796   3.978   2.823   0.053
 2658TIP3    H118797   4.058   2.870   0.081
 2658TIP3    H218798   3.938   2.806   0.139
 2659TIP3   OH218799   4.524   3.089   0.608
 2659TIP3    H118800   4.482   3.173   0.636
 2659TIP3    H218801   4.471   3.024   0.656
 2660TIP3   OH218802   4.585   3.530   1.254
 2660TIP3    H118803   4.668   3.582   1.245
 2660TIP3    H218804   4.626   3.451   1.294
 2661TIP3   OH218805   4.426   3.564   0.607
 2661TIP3    H118806   4.328   3.571   0.617
 2661TIP3    H218807   4.453   3.648   0.646
 2662TIP3   OH218808   4.956   3.061   1.228
 2662TIP3    H118809   4.895   3.027   1.297
 2662TIP3    H218810   4.996   2.976   1.198
 2663TIP3   OH218811   5.176   3.074   0.214
 2663TIP3    H118812   5.165   3.146   0.148
 2663TIP3    H218813   5.086   3.077   0.255
 2664TIP3   OH218814   3.993   2.261   1.419
 2664TIP3    H118815   3.920   2.270   1.355
 2664TIP3    H218816   4.014   2.167   1.416
 2665TIP3   OH218817   3.993   3.434   1.239
 2665TIP3    H118818   4.075   3.383   1.226
 2665TIP3    H218819   4.007   3.468   1.329
 2666TIP3   OH218820   4.436   3.251   0.240
 2666TIP3    H118821   4.502   3.210   0.299
 2666TIP3    H218822   4.432   3.345   0.274
 2667TIP3   OH218823   4.098   2.980   0.267
 2667TIP3    H118824   4.061   3.058   0.311
 2667TIP3    H218825   4.182   3.016   0.234
 2668TIP3   OH218826   4.856   2.254   1.343
 2668TIP3    H118827   4.946   2.287   1.361
 2668TIP3    H218828   4.864   2.159   1.361
 2669TIP3   OH218829   4.967   2.209   0.465
 2669TIP3    H118830   4.922   2.266   0.401
 2669TIP3    H218831   4.982   2.270   0.541
 2670TIP3   OH218832   4.699   3.368   0.399
 2670TIP3    H118833   4.609   3.405   0.392
 2670TIP3    H218834   4.741   3.410   0.321
 2671TIP3   OH218835   4.722   2.407   0.563
 2671TIP3    H118836   4.790   2.473   0.587
 2671TIP3    H218837   4.700   2.364   0.648
 2672TIP3   OH218838   4.756   2.504   1.418
 2672TIP3    H118839   4.783   2.534   1.507
 2672TIP3    H218840   4.794   2.414   1.416
 2673TIP3   OH218841   4.758   2.074   0.591
 2673TIP3    H118842   4.736   2.121   0.673
 2673TIP3    H218843   4.839   2.123   0.565
 2674TIP3   OH218844   4.455   3.498   0.350
 2674TIP3    H118845   4.494   3.575   0.304
 2674TIP3    H218846   4.430   3.541   0.435
 2675TIP3   OH218847   4.350   2.194   0.313
 2675TIP3    H118848   4.364   2.284   0.349
 2675TIP3    H218849   4.431   2.148   0.343
 2676TIP3   OH218850   4.157   3.261   0.165
 2676TIP3    H118851   4.198   3.343   0.198
 2676TIP3    H218852   4.236   3.207   0.147
 2677TIP3   OH218853   3.988   2.521   0.138
 2677TIP3    H118854   4.074   2.561   0.159
 2677TIP3    H218855   3.923   2.593   0.136
 2678TIP3   OH218856   4.076   1.984   0.984
 2678TIP3    H118857   4.073   1.977   0.886
 2678TIP3    H218858   4.047   1.894   1.010
 2679TIP3   OH218859   3.926   3.315   0.550
 2679TIP3    H118860   3.859   3.364   0.599
 2679TIP3    H218861   3.954   3.387   0.490
 2680TIP3   OH218862   4.737   3.399   0.124
 2680TIP3    H118863   4.647   3.370   0.104
 2680TIP3    H218864   4.766   3.441   0.040
 2681TIP3   OH218865   3.736   2.975   1.813
 2681TIP3    H118866   3.827   2.985   1.847
 2681TIP3    H218867   3.738   3.039   1.738
 2682TIP3   OH218868   4.330   3.003   0.105
 2682TIP3    H118869   4.376   2.955   0.178
 2682TIP3    H218870   4.399   3.067   0.082
 2683TIP3   OH218871   5.116   2.975   1.478
 2683TIP3    H118872   5.198   2.978   1.531
 2683TIP3    H218873   5.127   3.053   1.422
 2684TIP3   OH218874   3.915   2.742   1.770
 2684TIP3    H118875   3.983   2.686   1.729
 2684TIP3    H218876   3.973   2.806   1.815
 2685TIP3   OH218877   4.452   2.867   0.295
 2685TIP3    H118878   4.383   2.826   0.351
 2685TIP3    H218879   4.482   2.789   0.243
 2686TIP3   OH218880   4.356   2.574   1.422
 2686TIP3    H118881   4.295   2.638   1.465
 2686TIP3    H218882   4.428   2.633   1.388
 2687TIP3   OH218883   4.555   2.627   0.192
 2687TIP3    H118884   4.552   2.643   0.095
 2687TIP3    H218885   4.642   2.581   0.196
 2688TIP3   OH218886   4.317   2.353   1.558
 2688TIP3    H118887   4.390   2.297   1.523
 2688TIP3    H218888   4.338   2.439   1.514
 2689TIP3   OH218889   4.461   2.199   1.390
 2689TIP3    H118890   4.505   2.255   1.321
 2689TIP3    H218891   4.368   2.206   1.360
 2690TIP3   OH218892   4.545   2.765   1.337
 2690TIP3    H118893   4.635   2.784   1.367
 2690TIP3    H218894   4.515   2.854   1.309
 2691TIP3   OH218895   4.303   2.440   1.807
 2691TIP3    H118896   4.254   2.370   1.854
 2691TIP3    H218897   4.297   2.407   1.714
 2692TIP3   OH218898   4.537   1.946   1.395
 2692TIP3    H118899   4.501   2.037   1.392
 2692TIP3    H218900   4.482   1.904   1.325
 2693TIP3   OH218901   4.663   2.420   1.741
 2693TIP3    H118902   4.677   2.398   1.837
 2693TIP3    H218903   4.599   2.354   1.712
 2694TIP3   OH218904   4.918   2.324   1.663
 2694TIP3    H118905   4.824   2.337   1.683
 2694TIP3    H218906   4.951   2.273   1.740
 2695TIP3   OH218907   5.087   2.189   1.827
 2695TIP3    H118908   5.105   2.095   1.837
 2695TIP3    H218909   5.114   2.228   1.914
 2696TIP3   OH218910   4.549   1.852   1.662
 2696TIP3    H118911   4.625   1.791   1.647
 2696TIP3    H218912   4.540   1.893   1.573
 2697TIP3   OH218913   4.544   3.732   0.230
 2697TIP3    H118914   4.629   3.770   0.200
 2697TIP3    H218915   4.481   3.783   0.178
 2698TIP3   OH218916   3.895   3.217   0.147
 2698TIP3    H118917   3.979   3.270   0.153
 2698TIP3    H218918   3.933   3.141   0.099
 2699TIP3   OH218919   3.762   3.721   0.626
 2699TIP3    H118920   3.690   3.671   0.582
 2699TIP3    H218921   3.799   3.653   0.687
 2700TIP3   OH218922   3.853   3.548   0.815
 2700TIP3    H118923   3.804   3.468   0.838
 2700TIP3    H218924   3.833   3.603   0.893
 2701TIP3   OH218925   3.868   2.873   1.068
 2701TIP3    H118926   3.871   2.834   0.978
 2701TIP3    H218927   3.962   2.859   1.097
 2702TIP3   OH218928   3.959   2.214   1.068
 2702TIP3    H118929   3.990   2.124   1.044
 2702TIP3    H218930   4.038   2.269   1.052
 2703TIP3   OH218931   3.790   2.523   1.060
 2703TIP3    H118932   3.857   2.496   0.995
 2703TIP3    H218933   3.828   2.605   1.094
 2704TIP3   OH218934   3.809   2.180   0.485
 2704TIP3    H118935   3.715   2.205   0.484
 2704TIP3    H218936   3.838   2.216   0.399
 2705TIP3   OH218937   3.833   2.006   1.326
 2705TIP3    H118938   3.767   1.952   1.374
 2705TIP3    H218939   3.777   2.053   1.263
 2706TIP3   OH218940   4.014   3.295   1.687
 2706TIP3    H118941   3.965   3.372   1.718
 2706TIP3    H218942   4.036   3.245   1.767
 2707TIP3   OH218943   4.298   3.484   1.332
 2707TIP3    H118944   4.337   3.573   1.327
 2707TIP3    H218945   4.379   3.432   1.326
 2708TIP3   OH218946   4.785   3.592   1.663
 2708TIP3    H118947   4.780   3.565   1.756
 2708TIP3    H218948   4.851   3.664   1.664
 2709TIP3   OH218949   4.981   3.779   1.626
 2709TIP3    H118950   5.023   3.727   1.556
 2709TIP3    H218951   5.041   3.765   1.701
 2710TIP3   OH218952   4.078   3.792   1.358
 2710TIP3    H118953   3.988   3.828   1.345
 2710TIP3    H218954   4.069   3.735   1.435
 2711TIP3   OH218955   4.360   3.757   1.270
 2711TIP3    H118956   4.362   3.826   1.338
 2711TIP3    H218957   4.389   3.806   1.190
 2712TIP3   OH218958   4.799   3.670   1.184
 2712TIP3    H118959   4.826   3.722   1.107
 2712TIP3    H218960   4.825   3.725   1.261
 2713TIP3   OH218961   5.004   3.574   1.338
 2713TIP3    H118962   4.954   3.586   1.255
 2713TIP3    H218963   5.088   3.618   1.318
 2714TIP3   OH218964   4.029   3.628   1.049
 2714TIP3    H118965   3.997   3.554   1.106
 2714TIP3    H218966   4.103   3.585   1.000
 2715TIP3   OH218967   4.251   3.544   0.925
 2715TIP3    H118968   4.233   3.449   0.940
 2715TIP3    H218969   4.346   3.550   0.950
 2716TIP3   OH218970   4.516   3.553   0.988
 2716TIP3    H118971   4.517   3.457   0.987
 2716TIP3    H218972   4.535   3.567   1.084
 2717TIP3   OH218973   4.820   2.057   0.915
 2717TIP3    H118974   4.729   2.043   0.948
 2717TIP3    H218975   4.867   1.990   0.966
 2718TIP3   OH218976   4.054   1.973   0.711
 2718TIP3    H118977   3.969   1.951   0.667
 2718TIP3    H218978   4.104   1.890   0.691
 2719TIP3   OH218979   3.932   1.937   0.276
 2719TIP3    H118980   3.977   1.995   0.209
 2719TIP3    H218981   3.903   2.003   0.342
 2720TIP3   OH218982   4.502   1.985   0.663
 2720TIP3    H118983   4.591   2.010   0.632
 2720TIP3    H218984   4.483   2.055   0.728
 2721TIP3   OH218985   5.074   1.972   0.814
 2721TIP3    H118986   4.995   2.027   0.827
 2721TIP3    H218987   5.046   1.889   0.856
 2722TIP3   OH218988   3.926   3.548   0.403
 2722TIP3    H118989   3.851   3.536   0.341
 2722TIP3    H218990   3.953   3.638   0.377
 2723TIP3   OH218991   4.117   2.086   0.134
 2723TIP3    H118992   4.169   2.028   0.077
 2723TIP3    H218993   4.185   2.107   0.201
 2724TIP3   OH218994   4.633   2.207   0.362
 2724TIP3    H118995   4.689   2.144   0.412
 2724TIP3    H218996   4.640   2.285   0.419
 2725TIP3   OH218997   4.847   3.747   0.195
 2725TIP3    H118998   4.930   3.695   0.202
 2725TIP3    H218999   4.838   3.751   0.099
 2726TIP3   OH219000   4.166   3.571   0.188
 2726TIP3    H119001   4.120   3.652   0.217
 2726TIP3    H219002   4.242   3.602   0.137
 2727TIP3   OH219003   5.115   1.890   1.854
 2727TIP3    H119004   5.121   1.857   1.945
 2727TIP3    H219005   5.203   1.866   1.816
 2728TIP3   OH219006   1.250   4.804   0.656
 2728TIP3    H119007   1.228   4.897   0.676
 2728TIP3    H219008   1.163   4.768   0.636
 2729TIP3   OH219009   1.070   4.691   1.006
 2729TIP3    H119010   1.090   4.646   1.091
 2729TIP3    H219011   1.002   4.633   0.967
 2730TIP3   OH219012   0.291   4.632   1.191
 2730TIP3    H119013   0.315   4.548   1.238
 2730TIP3    H219014   0.347   4.697   1.240
 2731TIP3   OH219015   1.447   5.011   0.871
 2731TIP3    H119016   1.413   4.930   0.915
 2731TIP3    H219017   1.522   5.035   0.929
 2732TIP3   OH219018   0.440   5.073   1.087
 2732TIP3    H119019   0.401   4.994   1.046
 2732TIP3    H219020   0.525   5.074   1.036
 2733TIP3   OH219021   0.073   4.523   0.606
 2733TIP3    H119022   0.073   4.603   0.550
 2733TIP3    H219023   0.036   4.456   0.545
 2734TIP3   OH219024   0.233   4.695   0.813
 2734TIP3    H119025   0.240   4.603   0.848
 2734TIP3    H219026   0.181   4.680   0.734
 2735TIP3   OH219027   0.893   4.916   1.076
 2735TIP3    H119028   0.960   4.860   1.031
 2735TIP3    H219029   0.957   4.964   1.134
 2736TIP3   OH219030   1.726   4.078   1.136
 2736TIP3    H119031   1.747   4.141   1.208
 2736TIP3    H219032   1.801   4.098   1.077
 2737TIP3   OH219033   1.292   4.362   1.133
 2737TIP3    H119034   1.283   4.272   1.168
 2737TIP3    H219035   1.255   4.351   1.043
 2738TIP3   OH219036   0.576   4.176   0.801
 2738TIP3    H119037   0.565   4.258   0.748
 2738TIP3    H219038   0.524   4.113   0.747
 2739TIP3   OH219039   1.291   4.220   0.731
 2739TIP3    H119040   1.328   4.131   0.739
 2739TIP3    H219041   1.282   4.229   0.635
 2740TIP3   OH219042   0.281   4.451   0.905
 2740TIP3    H119043   0.329   4.398   0.971
 2740TIP3    H219044   0.277   4.390   0.828
 2741TIP3   OH219045   0.667   4.580   0.854
 2741TIP3    H119046   0.751   4.540   0.885
 2741TIP3    H219047   0.640   4.515   0.785
 2742TIP3   OH219048   1.804   4.240   1.358
 2742TIP3    H119049   1.772   4.332   1.346
 2742TIP3    H219050   1.846   4.246   1.446
 2743TIP3   OH219051   0.485   4.092   1.236
 2743TIP3    H119052   0.445   4.141   1.161
 2743TIP3    H219053   0.411   4.101   1.299
 2744TIP3   OH219054   1.141   5.055   0.559
 2744TIP3    H119055   1.135   5.015   0.471
 2744TIP3    H219056   1.112   5.146   0.542
 2745TIP3   OH219057   0.689   4.885   1.266
 2745TIP3    H119058   0.606   4.902   1.219
 2745TIP3    H219059   0.754   4.924   1.205
 2746TIP3   OH219060   1.549   4.177   0.914
 2746TIP3    H119061   1.507   4.104   0.962
 2746TIP3    H219062   1.569   4.239   0.989
 2747TIP3   OH219063   0.421   4.263   1.028
 2747TIP3    H119064   0.487   4.329   1.063
 2747TIP3    H219065   0.471   4.226   0.952
 2748TIP3   OH219066   0.536   5.154   1.321
 2748TIP3    H119067   0.495   5.123   1.238
 2748TIP3    H219068   0.475   5.114   1.386
 2749TIP3   OH219069   0.179   5.030   0.408
 2749TIP3    H119070   0.096   4.984   0.384
 2749TIP3    H219071   0.169   5.111   0.353
 2750TIP3   OH219072   1.438   5.134   1.172
 2750TIP3    H119073   1.375   5.135   1.099
 2750TIP3    H219074   1.488   5.217   1.160
 2751TIP3   OH219075   1.468   4.043   1.235
 2751TIP3    H119076   1.407   4.076   1.166
 2751TIP3    H219077   1.557   4.044   1.196
 2752TIP3   OH219078   0.800   3.807   0.943
 2752TIP3    H119079   0.782   3.712   0.952
 2752TIP3    H219080   0.720   3.846   0.987
 2753TIP3   OH219081   1.431   5.144   0.572
 2753TIP3    H119082   1.420   5.061   0.519
 2753TIP3    H219083   1.447   5.106   0.660
 2754TIP3   OH219084   1.664   5.038   1.430
 2754TIP3    H119085   1.666   4.958   1.485
 2754TIP3    H219086   1.573   5.038   1.399
 2755TIP3   OH219087   1.063   4.672   0.410
 2755TIP3    H119088   1.009   4.743   0.370
 2755TIP3    H219089   1.137   4.661   0.346
 2756TIP3   OH219090   1.089   4.561   0.132
 2756TIP3    H119091   1.178   4.596   0.147
 2756TIP3    H219092   1.106   4.468   0.112
 2757TIP3   OH219093   1.814   4.667   1.198
 2757TIP3    H119094   1.762   4.722   1.261
 2757TIP3    H219095   1.790   4.711   1.116
 2758TIP3   OH219096   1.441   4.652   0.536
 2758TIP3    H119097   1.371   4.710   0.573
 2758TIP3    H219098   1.505   4.659   0.609
 2759TIP3   OH219099   1.431   4.557   1.444
 2759TIP3    H119100   1.480   4.636   1.476
 2759TIP3    H219101   1.365   4.599   1.385
 2760TIP3   OH219102   0.609   4.772   0.687
 2760TIP3    H119103   0.558   4.732   0.613
 2760TIP3    H219104   0.624   4.697   0.749
 2761TIP3   OH219105   0.697   5.069   0.981
 2761TIP3    H119106   0.682   5.041   0.889
 2761TIP3    H219107   0.769   5.010   1.011
 2762TIP3   OH219108   0.580   4.683   1.097
 2762TIP3    H119109   0.599   4.677   1.000
 2762TIP3    H219110   0.656   4.732   1.131
 2763TIP3   OH219111   0.611   5.064   1.575
 2763TIP3    H119112   0.578   5.153   1.552
 2763TIP3    H219113   0.659   5.036   1.495
 2764TIP3   OH219114   1.305   4.617   0.312
 2764TIP3    H119115   1.354   4.624   0.397
 2764TIP3    H219116   1.355   4.679   0.253
 2765TIP3   OH219117   0.413   4.770   1.396
 2765TIP3    H119118   0.446   4.821   1.472
 2765TIP3    H219119   0.337   4.726   1.440
 2766TIP3   OH219120   1.700   3.787   0.297
 2766TIP3    H119121   1.604   3.798   0.280
 2766TIP3    H219122   1.740   3.863   0.251
 2767TIP3   OH219123   0.469   4.667   0.449
 2767TIP3    H119124   0.418   4.747   0.429
 2767TIP3    H219125   0.400   4.601   0.466
 2768TIP3   OH219126   0.098   4.936   1.361
 2768TIP3    H119127   0.071   4.924   1.269
 2768TIP3    H219128   0.139   4.849   1.378
 2769TIP3   OH219129   1.568   4.412   1.640
 2769TIP3    H119130   1.505   4.463   1.585
 2769TIP3    H219131   1.539   4.320   1.625
 2770TIP3   OH219132   0.317   5.070   1.470
 2770TIP3    H119133   0.260   5.015   1.525
 2770TIP3    H219134   0.281   5.046   1.382
 2771TIP3   OH219135   0.571   3.933   1.036
 2771TIP3    H119136   0.478   3.934   1.006
 2771TIP3    H219137   0.567   3.989   1.116
 2772TIP3   OH219138   1.058   3.862   1.380
 2772TIP3    H119139   1.090   3.891   1.469
 2772TIP3    H219140   0.961   3.876   1.388
 2773TIP3   OH219141   1.294   4.256   1.558
 2773TIP3    H119142   1.204   4.226   1.589
 2773TIP3    H219143   1.279   4.346   1.526
 2774TIP3   OH219144   1.395   4.757   0.105
 2774TIP3    H119145   1.383   4.853   0.112
 2774TIP3    H219146   1.492   4.751   0.101
 2775TIP3   OH219147   1.023   4.159   0.153
 2775TIP3    H119148   0.971   4.157   0.236
 2775TIP3    H219149   0.982   4.082   0.109
 2776TIP3   OH219150   0.578   4.416   1.175
 2776TIP3    H119151   0.503   4.413   1.237
 2776TIP3    H219152   0.577   4.510   1.146
 2777TIP3   OH219153   0.543   4.420   0.684
 2777TIP3    H119154   0.446   4.422   0.666
 2777TIP3    H219155   0.579   4.396   0.596
 2778TIP3   OH219156   1.148   4.462   0.565
 2778TIP3    H119157   1.124   4.544   0.515
 2778TIP3    H219158   1.214   4.424   0.505
 2779TIP3   OH219159   0.989   4.511   1.628
 2779TIP3    H119160   0.911   4.478   1.673
 2779TIP3    H219161   1.060   4.496   1.692
 2780TIP3   OH219162   1.201   4.441   0.876
 2780TIP3    H119163   1.195   4.511   0.808
 2780TIP3    H219164   1.230   4.366   0.820
 2781TIP3   OH219165   0.341   4.399   1.324
 2781TIP3    H119166   0.388   4.420   1.407
 2781TIP3    H219167   0.311   4.307   1.345
 2782TIP3   OH219168   0.696   4.201   0.108
 2782TIP3    H119169   0.635   4.149   0.163
 2782TIP3    H219170   0.649   4.283   0.090
 2783TIP3   OH219171   0.057   4.073   0.744
 2783TIP3    H119172   0.119   4.083   0.820
 2783TIP3    H219173   0.078   3.983   0.715
 2784TIP3   OH219174   0.157   4.183   0.289
 2784TIP3    H119175   0.230   4.234   0.251
 2784TIP3    H219176   0.085   4.213   0.229
 2785TIP3   OH219177   1.154   4.571   1.230
 2785TIP3    H119178   1.209   4.496   1.197
 2785TIP3    H219179   1.089   4.520   1.284
 2786TIP3   OH219180   0.859   4.158   0.772
 2786TIP3    H119181   0.762   4.157   0.792
 2786TIP3    H219182   0.897   4.138   0.859
 2787TIP3   OH219183   0.298   4.324   0.648
 2787TIP3    H119184   0.221   4.323   0.588
 2787TIP3    H219185   0.328   4.231   0.641
 2788TIP3   OH219186   0.644   4.358   0.437
 2788TIP3    H119187   0.739   4.374   0.433
 2788TIP3    H219188   0.610   4.416   0.364
 2789TIP3   OH219189   1.249   4.106   1.081
 2789TIP3    H119190   1.208   4.102   1.171
 2789TIP3    H219191   1.176   4.070   1.029
 2790TIP3   OH219192   0.543   4.459   0.199
 2790TIP3    H119193   0.509   4.446   0.109
 2790TIP3    H219194   0.633   4.493   0.184
 2791TIP3   OH219195   0.423   4.879   1.654
 2791TIP3    H119196   0.458   4.965   1.621
 2791TIP3    H219197   0.336   4.906   1.691
 2792TIP3   OH219198   0.905   4.483   0.942
 2792TIP3    H119199   0.991   4.455   0.906
 2792TIP3    H219200   0.894   4.416   1.012
 2793TIP3   OH219201   0.402   4.059   0.631
 2793TIP3    H119202   0.370   3.977   0.677
 2793TIP3    H219203   0.450   4.021   0.556
 2794TIP3   OH219204   0.819   4.293   1.192
 2794TIP3    H119205   0.739   4.350   1.188
 2794TIP3    H219206   0.878   4.342   1.253
 2795TIP3   OH219207   0.902   4.899   0.394
 2795TIP3    H119208   0.822   4.846   0.373
 2795TIP3    H219209   0.875   4.942   0.478
 2796TIP3   OH219210   1.600   4.836   1.245
 2796TIP3    H119211   1.630   4.924   1.213
 2796TIP3    H219212   1.517   4.827   1.197
 2797TIP3   OH219213   1.289   4.164   0.182
 2797TIP3    H119214   1.193   4.172   0.162
 2797TIP3    H219215   1.307   4.250   0.224
 2798TIP3   OH219216   0.973   4.981   1.519
 2798TIP3    H119217   0.999   4.903   1.570
 2798TIP3    H219218   1.057   5.034   1.521
 2799TIP3   OH219219   1.355   4.355   0.385
 2799TIP3    H119220   1.437   4.394   0.418
 2799TIP3    H219221   1.330   4.426   0.322
 2800TIP3   OH219222   0.433   4.852   0.942
 2800TIP3    H119223   0.428   4.811   0.855
 2800TIP3    H219224   0.426   4.774   1.000
 2801TIP3   OH219225   1.108   5.065   0.278
 2801TIP3    H119226   1.084   5.077   0.185
 2801TIP3    H219227   1.037   5.006   0.309
 2802TIP3   OH219228   0.160   4.691   1.453
 2802TIP3    H119229   0.082   4.680   1.510
 2802TIP3    H219230   0.151   4.618   1.390
 2803TIP3   OH219231   1.209   5.109   1.514
 2803TIP3    H119232   1.230   5.186   1.458
 2803TIP3    H219233   1.240   5.145   1.599
 2804TIP3   OH219234   1.828   4.371   0.328
 2804TIP3    H119235   1.754   4.381   0.264
 2804TIP3    H219236   1.868   4.460   0.320
 2805TIP3   OH219237   1.368   4.754   1.031
 2805TIP3    H119238   1.274   4.730   1.018
 2805TIP3    H219239   1.408   4.667   1.006
 2806TIP3   OH219240   0.564  -0.030   0.714
 2806TIP3    H119241   0.631   0.041   0.708
 2806TIP3    H219242   0.495   0.007   0.657
 2807TIP3   OH219243   0.190   4.673   0.202
 2807TIP3    H119244   0.261   4.741   0.202
 2807TIP3    H219245   0.128   4.707   0.136
 2808TIP3   OH219246   0.765   5.005   0.626
 2808TIP3    H119247   0.688   5.066   0.632
 2808TIP3    H219248   0.725   4.924   0.661
 2809TIP3   OH219249   1.102   4.972   1.231
 2809TIP3    H119250   1.087   4.972   1.327
 2809TIP3    H219251   1.176   4.910   1.221
 2810TIP3   OH219252   1.393   5.046   0.084
 2810TIP3    H119253   1.444   5.129   0.091
 2810TIP3    H219254   1.350   5.046   0.172
 2811TIP3   OH219255   0.280   4.164   1.426
 2811TIP3    H119256   0.192   4.179   1.463
 2811TIP3    H219257   0.300   4.079   1.469
 2812TIP3   OH219258   1.471   4.915   0.428
 2812TIP3    H119259   1.466   4.820   0.450
 2812TIP3    H219260   1.565   4.928   0.408
 2813TIP3   OH219261   0.750   5.163   0.265
 2813TIP3    H119262   0.773   5.089   0.322
 2813TIP3    H219263   0.790   5.239   0.309
 2814TIP3   OH219264   0.360   4.887   0.252
 2814TIP3    H119265   0.294   4.929   0.311
 2814TIP3    H219266   0.411   4.964   0.220
 2815TIP3   OH219267   1.154   4.134   1.336
 2815TIP3    H119268   1.237   4.141   1.386
 2815TIP3    H219269   1.100   4.080   1.398
 2816TIP3   OH219270   1.184   4.091   0.446
 2816TIP3    H119271   1.219   4.108   0.356
 2816TIP3    H219272   1.112   4.157   0.451
 2817TIP3   OH219273   0.955   4.271   0.541
 2817TIP3    H119274   0.994   4.360   0.555
 2817TIP3    H219275   0.926   4.244   0.631
 2818TIP3   OH219276   1.024   4.401   1.385
 2818TIP3    H119277   0.998   4.442   1.472
 2818TIP3    H219278   1.040   4.309   1.408
 2819TIP3   OH219279   0.990   3.945   0.608
 2819TIP3    H119280   0.954   4.023   0.654
 2819TIP3    H219281   1.072   3.981   0.569
 2820TIP3   OH219282   0.562   4.071   0.306
 2820TIP3    H119283   0.565   4.151   0.361
 2820TIP3    H219284   0.643   4.025   0.335
 2821TIP3   OH219285   1.604   4.136   1.509
 2821TIP3    H119286   1.513   4.126   1.476
 2821TIP3    H219287   1.651   4.176   1.433
 2822TIP3   OH219288   1.468   4.521   0.943
 2822TIP3    H119289   1.387   4.471   0.965
 2822TIP3    H219290   1.537   4.467   0.987
 2823TIP3   OH219291   0.444   5.148   0.155
 2823TIP3    H119292   0.470   5.197   0.235
 2823TIP3    H219293   0.522   5.092   0.137
 2824TIP3   OH219294   0.281   4.402   0.153
 2824TIP3    H119295   0.325   4.477   0.197
 2824TIP3    H219296   0.187   4.430   0.153
 2825TIP3   OH219297   0.309   3.865   0.996
 2825TIP3    H119298   0.312   3.832   0.903
 2825TIP3    H219299   0.287   3.780   1.041
 2826TIP3   OH219300   0.180   4.936   1.748
 2826TIP3    H119301   0.172   4.840   1.770
 2826TIP3    H219302   0.099   4.954   1.699
 2827TIP3   OH219303   0.624   4.940   0.112
 2827TIP3    H119304   0.632   4.868   0.179
 2827TIP3    H219305   0.706   4.925   0.065
 2828TIP3   OH219306   0.201   4.656   1.773
 2828TIP3    H119307   0.179   4.565   1.747
 2828TIP3    H219308   0.297   4.645   1.786
 2829TIP3   OH219309   0.699   4.754   0.293
 2829TIP3    H119310   0.627   4.715   0.346
 2829TIP3    H219311   0.741   4.672   0.256
 2830TIP3   OH219312   0.570   4.545   1.435
 2830TIP3    H119313   0.531   4.630   1.409
 2830TIP3    H219314   0.659   4.552   1.393
 2831TIP3   OH219315   0.824   4.544   0.181
 2831TIP3    H119316   0.807   4.535   0.085
 2831TIP3    H219317   0.923   4.546   0.179
 2832TIP3   OH219318   1.659   4.806   0.131
 2832TIP3    H119319   1.737   4.783   0.077
 2832TIP3    H219320   1.695   4.882   0.182
 2833TIP3   OH219321   0.636   4.318   1.576
 2833TIP3    H119322   0.656   4.256   1.505
 2833TIP3    H219323   0.601   4.397   1.530
 2834TIP3   OH219324   0.735   4.088   1.355
 2834TIP3    H119325   0.780   4.150   1.294
 2834TIP3    H219326   0.643   4.093   1.320
 2835TIP3   OH219327   0.832   4.675   1.353
 2835TIP3    H119328   0.919   4.713   1.335
 2835TIP3    H219329   0.773   4.753   1.343
 2836TIP3   OH219330   0.397   4.376   1.759
 2836TIP3    H119331   0.412   4.330   1.843
 2836TIP3    H219332   0.488   4.373   1.722
 2837TIP3   OH219333   0.789   3.834   1.366
 2837TIP3    H119334   0.770   3.930   1.364
 2837TIP3    H219335   0.711   3.801   1.317
 2838TIP3   OH219336   0.781   3.754   1.634
 2838TIP3    H119337   0.869   3.714   1.647
 2838TIP3    H219338   0.786   3.768   1.537
 2839TIP3   OH219339   0.187   5.102   0.060
 2839TIP3    H119340   0.272   5.064   0.090
 2839TIP3    H219341   0.135   5.024   0.034
 2840TIP3   OH219342   1.797   4.865   0.406
 2840TIP3    H119343   1.874   4.920   0.434
 2840TIP3    H219344   1.792   4.805   0.483
 2841TIP3   OH219345   1.831   4.687   0.607
 2841TIP3    H119346   1.752   4.658   0.658
 2841TIP3    H219347   1.890   4.715   0.680
 2842TIP3   OH219348   1.729   5.037   1.082
 2842TIP3    H119349   1.797   4.968   1.076
 2842TIP3    H219350   1.780   5.116   1.106
 2843TIP3   OH219351   1.851   4.633   0.249
 2843TIP3    H119352   1.757   4.645   0.229
 2843TIP3    H219353   1.865   4.713   0.304
 2844TIP3   OH219354   1.613   4.397   0.161
 2844TIP3    H119355   1.633   4.443   0.077
 2844TIP3    H219356   1.617   4.304   0.133
 2845TIP3   OH219357   1.617   4.597   0.735
 2845TIP3    H119358   1.591   4.513   0.693
 2845TIP3    H219359   1.568   4.590   0.820
 2846TIP3   OH219360   0.168   4.822   1.040
 2846TIP3    H119361   0.214   4.802   0.955
 2846TIP3    H219362   0.209   4.755   1.098
 2847TIP3   OH219363   1.665   4.731   1.553
 2847TIP3    H119364   1.732   4.682   1.606
 2847TIP3    H219365   1.639   4.801   1.616
 2848TIP3   OH219366   1.813   4.523   1.703
 2848TIP3    H119367   1.726   4.483   1.684
 2848TIP3    H219368   1.874   4.449   1.698
 2849TIP3   OH219369   1.617   4.116   0.083
 2849TIP3    H119370   1.669   4.047   0.130
 2849TIP3    H219371   1.527   4.103   0.116
 2850TIP3   OH219372   1.623   4.320   0.516
 2850TIP3    H119373   1.580   4.243   0.474
 2850TIP3    H219374   1.691   4.343   0.448
 2851TIP3   OH219375   1.639   4.363   1.079
 2851TIP3    H119376   1.736   4.368   1.063
 2851TIP3    H219377   1.633   4.387   1.175
 2852TIP3   OH219378   1.653   4.466   1.325
 2852TIP3    H119379   1.573   4.490   1.378
 2852TIP3    H219380   1.687   4.554   1.301
 2853TIP3   OH219381   0.098   4.303   1.728
 2853TIP3    H119382   0.190   4.310   1.760
 2853TIP3    H219383   0.069   4.219   1.765
 2854TIP3   OH219384   1.582   4.026   0.552
 2854TIP3    H119385   1.653   3.972   0.592
 2854TIP3    H219386   1.551   3.968   0.479
 2855TIP3   OH219387   0.220   4.101   0.942
 2855TIP3    H119388   0.257   4.017   0.978
 2855TIP3    H219389   0.216   4.158   1.019
 2856TIP3   OH219390   0.070   4.410   1.071
 2856TIP3    H119391   0.125   4.398   0.992
 2856TIP3    H219392   0.123   4.480   1.114
 2857TIP3   OH219393   1.795   4.033   1.730
 2857TIP3    H119394   1.717   4.058   1.786
 2857TIP3    H219395   1.754   4.034   1.641
 2858TIP3   OH219396   1.859   3.978   0.170
 2858TIP3    H119397   1.896   3.952   0.083
 2858TIP3    H219398   1.916   4.055   0.193
 2859TIP3   OH219399   0.037   3.980   0.463
 2859TIP3    H119400  -0.054   4.012   0.486
 2859TIP3    H219401   0.069   4.059   0.414
 2860TIP3   OH219402   0.072   3.864   1.319
 2860TIP3    H119403   0.059   3.940   1.379
 2860TIP3    H219404   0.052   3.905   1.233
 2861TIP3   OH219405   1.700   3.824   1.452
 2861TIP3    H119406   1.608   3.837   1.424
 2861TIP3    H219407   1.717   3.733   1.420
 2862TIP3   OH219408   1.005   3.984   0.954
 2862TIP3    H119409   0.929   3.923   0.961
 2862TIP3    H219410   1.059   3.940   0.887
 2863TIP3   OH219411   1.567   3.801   0.882
 2863TIP3    H119412   1.641   3.850   0.840
 2863TIP3    H219413   1.492   3.841   0.833
 2864TIP3   OH219414   1.749   3.904   0.722
 2864TIP3    H119415   1.802   3.833   0.676
 2864TIP3    H219416   1.815   3.976   0.733
 2865TIP3   OH219417   0.322   3.817   0.730
 2865TIP3    H119418   0.231   3.816   0.691
 2865TIP3    H219419   0.353   3.725   0.714
 2866TIP3   OH219420   0.210   3.824   0.332
 2866TIP3    H119421   0.239   3.890   0.264
 2866TIP3    H219422   0.145   3.878   0.383
 2867TIP3   OH219423   0.699   3.841   0.679
 2867TIP3    H119424   0.795   3.832   0.674
 2867TIP3    H219425   0.685   3.878   0.767
 2868TIP3   OH219426   1.322   3.871   0.741
 2868TIP3    H119427   1.279   3.846   0.657
 2868TIP3    H219428   1.285   3.801   0.799
 2869TIP3   OH219429   1.449   3.870   0.372
 2869TIP3    H119430   1.365   3.918   0.360
 2869TIP3    H219431   1.419   3.796   0.429
 2870TIP3   OH219432   0.332   3.966   0.148
 2870TIP3    H119433   0.423   3.944   0.124
 2870TIP3    H219434   0.346   4.039   0.211
 2871TIP3   OH219435   0.880   4.063   0.372
 2871TIP3    H119436   0.918   4.001   0.437
 2871TIP3    H219437   0.886   4.148   0.421
 2872TIP3   OH219438   0.250   3.921   1.591
 2872TIP3    H119439   0.235   3.833   1.635
 2872TIP3    H219440   0.308   3.961   1.657
 2873TIP3   OH219441   0.527   3.893   1.820
 2873TIP3    H119442   0.583   3.845   1.756
 2873TIP3    H219443   0.485   3.821   1.868
 2874TIP3   OH219444   1.335   3.737   1.865
 2874TIP3    H119445   1.328   3.807   1.934
 2874TIP3    H219446   1.414   3.764   1.815
 2875TIP3   OH219447   3.104   4.808   0.674
 2875TIP3    H119448   3.090   4.904   0.680
 2875TIP3    H219449   3.034   4.782   0.612
 2876TIP3   OH219450   2.965   4.703   1.024
 2876TIP3    H119451   2.975   4.659   1.111
 2876TIP3    H219452   2.911   4.638   0.972
 2877TIP3   OH219453   3.346   4.994   0.871
 2877TIP3    H119454   3.331   4.915   0.926
 2877TIP3    H219455   3.398   5.050   0.930
 2878TIP3   OH219456   2.319   5.064   1.106
 2878TIP3    H119457   2.277   4.979   1.077
 2878TIP3    H219458   2.402   5.063   1.053
 2879TIP3   OH219459   1.980   4.422   0.555
 2879TIP3    H119460   1.967   4.518   0.563
 2879TIP3    H219461   1.899   4.394   0.508
 2880TIP3   OH219462   2.006   4.755   0.813
 2880TIP3    H119463   2.018   4.661   0.837
 2880TIP3    H219464   2.090   4.791   0.851
 2881TIP3   OH219465   2.792   4.908   1.082
 2881TIP3    H119466   2.855   4.842   1.047
 2881TIP3    H219467   2.850   4.956   1.145
 2882TIP3   OH219468   3.653   4.074   1.116
 2882TIP3    H119469   3.666   4.134   1.193
 2882TIP3    H219470   3.733   4.097   1.067
 2883TIP3   OH219471   3.151   4.402   1.137
 2883TIP3    H119472   3.156   4.306   1.155
 2883TIP3    H219473   3.128   4.395   1.041
 2884TIP3   OH219474   2.471   4.133   0.775
 2884TIP3    H119475   2.457   4.225   0.745
 2884TIP3    H219476   2.400   4.090   0.723
 2885TIP3   OH219477   3.193   4.219   0.714
 2885TIP3    H119478   3.252   4.173   0.777
 2885TIP3    H219479   3.256   4.269   0.660
 2886TIP3   OH219480   2.064   4.481   0.868
 2886TIP3    H119481   2.138   4.457   0.927
 2886TIP3    H219482   2.087   4.423   0.793
 2887TIP3   OH219483   2.581   4.584   0.833
 2887TIP3    H119484   2.672   4.551   0.848
 2887TIP3    H219485   2.535   4.504   0.801
 2888TIP3   OH219486   3.687   4.230   1.345
 2888TIP3    H119487   3.653   4.316   1.311
 2888TIP3    H219488   3.651   4.230   1.437
 2889TIP3   OH219489   2.331   4.072   1.202
 2889TIP3    H119490   2.299   4.123   1.125
 2889TIP3    H219491   2.286   4.123   1.273
 2890TIP3   OH219492   3.027   5.067   0.554
 2890TIP3    H119493   3.014   5.039   0.461
 2890TIP3    H219494   2.997   5.159   0.550
 2891TIP3   OH219495   2.531   4.815   1.211
 2891TIP3    H119496   2.485   4.884   1.262
 2891TIP3    H219497   2.589   4.871   1.155
 2892TIP3   OH219498   3.424   4.160   0.864
 2892TIP3    H119499   3.485   4.087   0.882
 2892TIP3    H219500   3.464   4.232   0.917
 2893TIP3   OH219501   2.283   4.269   1.016
 2893TIP3    H119502   2.341   4.336   1.057
 2893TIP3    H219503   2.327   4.253   0.931
 2894TIP3   OH219504   2.433   5.026   1.352
 2894TIP3    H119505   2.401   5.062   1.267
 2894TIP3    H219506   2.348   5.022   1.397
 2895TIP3   OH219507   2.030   5.002   0.410
 2895TIP3    H119508   1.977   5.013   0.328
 2895TIP3    H219509   2.078   5.087   0.402
 2896TIP3   OH219510   3.334   5.113   1.177
 2896TIP3    H119511   3.264   5.130   1.113
 2896TIP3    H219512   3.401   5.178   1.153
 2897TIP3   OH219513   3.380   4.028   1.208
 2897TIP3    H119514   3.323   4.083   1.151
 2897TIP3    H219515   3.468   4.046   1.171
 2898TIP3   OH219516   2.677   3.801   1.016
 2898TIP3    H119517   2.647   3.718   0.977
 2898TIP3    H219518   2.590   3.848   1.020
 2899TIP3   OH219519   3.309   5.142   0.578
 2899TIP3    H119520   3.305   5.069   0.512
 2899TIP3    H219521   3.314   5.087   0.657
 2900TIP3   OH219522   3.495   5.021   1.450
 2900TIP3    H119523   3.507   4.947   1.386
 2900TIP3    H219524   3.426   5.069   1.399
 2901TIP3   OH219525   2.946   4.687   0.424
 2901TIP3    H119526   2.884   4.743   0.375
 2901TIP3    H219527   3.024   4.683   0.364
 2902TIP3   OH219528   2.973   4.553   0.137
 2902TIP3    H119529   3.062   4.590   0.155
 2902TIP3    H219530   2.993   4.460   0.121
 2903TIP3   OH219531   3.700   4.655   1.216
 2903TIP3    H119532   3.627   4.720   1.224
 2903TIP3    H219533   3.760   4.703   1.154
 2904TIP3   OH219534   3.293   4.656   0.554
 2904TIP3    H119535   3.228   4.702   0.612
 2904TIP3    H219536   3.373   4.652   0.612
 2905TIP3   OH219537   3.323   4.553   1.421
 2905TIP3    H119538   3.304   4.643   1.452
 2905TIP3    H219539   3.246   4.538   1.365
 2906TIP3   OH219540   2.422   4.754   0.692
 2906TIP3    H119541   2.422   4.713   0.603
 2906TIP3    H219542   2.473   4.692   0.748
 2907TIP3   OH219543   2.560   5.029   0.970
 2907TIP3    H119544   2.556   5.088   0.892
 2907TIP3    H219545   2.649   4.992   0.964
 2908TIP3   OH219546   2.450   4.618   1.056
 2908TIP3    H119547   2.495   4.629   0.969
 2908TIP3    H219548   2.488   4.691   1.111
 2909TIP3   OH219549   2.559   5.092   1.584
 2909TIP3    H119550   2.490   5.154   1.612
 2909TIP3    H219551   2.526   5.064   1.496
 2910TIP3   OH219552   3.178   4.648   0.314
 2910TIP3    H119553   3.224   4.653   0.401
 2910TIP3    H219554   3.235   4.699   0.251
 2911TIP3   OH219555   3.615   3.794   0.291
 2911TIP3    H119556   3.518   3.808   0.290
 2911TIP3    H219557   3.650   3.882   0.270
 2912TIP3   OH219558   2.351   4.648   0.425
 2912TIP3    H119559   2.300   4.731   0.420
 2912TIP3    H219560   2.306   4.592   0.359
 2913TIP3   OH219561   2.438   3.902   1.039
 2913TIP3    H119562   2.352   3.910   0.993
 2913TIP3    H219563   2.427   3.975   1.105
 2914TIP3   OH219564   2.892   3.815   1.436
 2914TIP3    H119565   2.900   3.881   1.507
 2914TIP3    H219566   2.804   3.837   1.398
 2915TIP3   OH219567   3.236   4.293   1.493
 2915TIP3    H119568   3.207   4.291   1.586
 2915TIP3    H219569   3.273   4.383   1.487
 2916TIP3   OH219570   3.280   4.758   0.105
 2916TIP3    H119571   3.248   4.779   0.017
 2916TIP3    H219572   3.351   4.825   0.114
 2917TIP3   OH219573   2.907   4.144   0.157
 2917TIP3    H119574   2.845   4.135   0.231
 2917TIP3    H219575   2.862   4.091   0.089
 2918TIP3   OH219576   2.481   4.384   1.177
 2918TIP3    H119577   2.407   4.393   1.241
 2918TIP3    H219578   2.487   4.478   1.147
 2919TIP3   OH219579   2.422   4.391   0.698
 2919TIP3    H119580   2.342   4.425   0.656
 2919TIP3    H219581   2.479   4.387   0.617
 2920TIP3   OH219582   3.028   4.469   0.562
 2920TIP3    H119583   2.999   4.553   0.520
 2920TIP3    H219584   3.088   4.436   0.490
 2921TIP3   OH219585   2.961   4.429   1.640
 2921TIP3    H119586   2.905   4.372   1.697
 2921TIP3    H219587   3.032   4.453   1.703
 2922TIP3   OH219588   3.109   4.444   0.871
 2922TIP3    H119589   3.090   4.518   0.810
 2922TIP3    H219590   3.117   4.370   0.808
 2923TIP3   OH219591   2.545   4.210   0.064
 2923TIP3    H119592   2.519   4.150   0.136
 2923TIP3    H219593   2.509   4.294   0.094
 2924TIP3   OH219594   1.881   4.137   0.749
 2924TIP3    H119595   1.948   4.132   0.821
 2924TIP3    H219596   1.937   4.153   0.672
 2925TIP3   OH219597   2.003   4.182   0.254
 2925TIP3    H119598   2.083   4.235   0.235
 2925TIP3    H219599   1.943   4.255   0.279
 2926TIP3   OH219600   3.005   4.588   1.273
 2926TIP3    H119601   3.074   4.533   1.231
 2926TIP3    H219602   2.952   4.518   1.318
 2927TIP3   OH219603   2.749   4.172   0.783
 2927TIP3    H119604   2.653   4.164   0.800
 2927TIP3    H219605   2.786   4.114   0.853
 2928TIP3   OH219606   2.142   4.258   0.688
 2928TIP3    H119607   2.110   4.317   0.616
 2928TIP3    H219608   2.196   4.191   0.641
 2929TIP3   OH219609   2.530   4.384   0.450
 2929TIP3    H119610   2.627   4.385   0.441
 2929TIP3    H219611   2.502   4.446   0.382
 2930TIP3   OH219612   3.157   4.136   1.068
 2930TIP3    H119613   3.104   4.116   1.148
 2930TIP3    H219614   3.153   4.054   1.017
 2931TIP3   OH219615   2.427   4.505   0.162
 2931TIP3    H119616   2.411   4.496   0.067
 2931TIP3    H219617   2.522   4.524   0.169
 2932TIP3   OH219618   2.831   4.488   0.925
 2932TIP3    H119619   2.900   4.431   0.887
 2932TIP3    H219620   2.800   4.431   0.997
 2933TIP3   OH219621   2.292   4.053   0.590
 2933TIP3    H119622   2.237   3.991   0.642
 2933TIP3    H219623   2.340   3.990   0.533
 2934TIP3   OH219624   2.725   4.238   1.154
 2934TIP3    H119625   2.645   4.295   1.158
 2934TIP3    H219626   2.778   4.280   1.224
 2935TIP3   OH219627   2.777   4.935   0.392
 2935TIP3    H119628   2.700   4.882   0.363
 2935TIP3    H219629   2.749   4.957   0.484
 2936TIP3   OH219630   3.513   4.838   1.238
 2936TIP3    H119631   3.546   4.911   1.180
 2936TIP3    H219632   3.428   4.819   1.194
 2937TIP3   OH219633   3.170   4.162   0.237
 2937TIP3    H119634   3.077   4.160   0.204
 2937TIP3    H219635   3.183   4.255   0.264
 2938TIP3   OH219636   2.877   4.931   1.512
 2938TIP3    H119637   2.797   4.888   1.478
 2938TIP3    H219638   2.859   5.026   1.502
 2939TIP3   OH219639   3.210   4.388   0.370
 2939TIP3    H119640   3.289   4.391   0.429
 2939TIP3    H219641   3.209   4.478   0.333
 2940TIP3   OH219642   2.265   4.820   0.961
 2940TIP3    H119643   2.326   4.841   0.889
 2940TIP3    H219644   2.305   4.742   1.004
 2941TIP3   OH219645   2.996   5.067   0.277
 2941TIP3    H119646   2.967   5.086   0.186
 2941TIP3    H219647   2.920   5.015   0.310
 2942TIP3   OH219648   3.143   5.134   1.513
 2942TIP3    H119649   3.102   5.203   1.458
 2942TIP3    H219650   3.138   5.181   1.600
 2943TIP3   OH219651   3.717   4.387   0.331
 2943TIP3    H119652   3.643   4.372   0.267
 2943TIP3    H219653   3.740   4.479   0.306
 2944TIP3   OH219654   3.718   4.986   1.605
 2944TIP3    H119655   3.625   4.995   1.578
 2944TIP3    H219656   3.761   4.970   1.518
 2945TIP3   OH219657   3.275   4.757   1.026
 2945TIP3    H119658   3.189   4.770   0.984
 2945TIP3    H219659   3.296   4.665   0.999
 2946TIP3   OH219660   2.458  -0.044   0.744
 2946TIP3    H119661   2.522   0.026   0.717
 2946TIP3    H219662   2.405  -0.052   0.665
 2947TIP3   OH219663   2.135   4.701   0.090
 2947TIP3    H119664   2.201   4.746   0.147
 2947TIP3    H219665   2.057   4.750   0.118
 2948TIP3   OH219666   2.669   4.994   0.642
 2948TIP3    H119667   2.596   5.056   0.646
 2948TIP3    H219668   2.647   4.928   0.710
 2949TIP3   OH219669   3.021   4.976   1.243
 2949TIP3    H119670   3.051   4.957   1.334
 2949TIP3    H219671   3.083   4.923   1.190
 2950TIP3   OH219672   3.292   5.060   0.110
 2950TIP3    H119673   3.332   5.143   0.139
 2950TIP3    H219674   3.228   5.045   0.181
 2951TIP3   OH219675   2.172   4.189   1.384
 2951TIP3    H119676   2.096   4.246   1.364
 2951TIP3    H219677   2.136   4.125   1.448
 2952TIP3   OH219678   3.362   4.919   0.411
 2952TIP3    H119679   3.334   4.828   0.429
 2952TIP3    H219680   3.456   4.907   0.392
 2953TIP3   OH219681   2.580   5.195   0.334
 2953TIP3    H119682   2.632   5.114   0.327
 2953TIP3    H219683   2.650   5.263   0.333
 2954TIP3   OH219684   2.235   4.879   0.262
 2954TIP3    H119685   2.162   4.915   0.317
 2954TIP3    H219686   2.278   4.962   0.231
 2955TIP3   OH219687   3.054   4.141   1.332
 2955TIP3    H119688   3.115   4.182   1.396
 2955TIP3    H219689   3.012   4.078   1.391
 2956TIP3   OH219690   3.061   4.107   0.493
 2956TIP3    H119691   3.111   4.138   0.415
 2956TIP3    H219692   3.107   4.152   0.567
 2957TIP3   OH219693   2.825   4.281   0.548
 2957TIP3    H119694   2.896   4.346   0.564
 2957TIP3    H219695   2.811   4.237   0.636
 2958TIP3   OH219696   2.889   4.370   1.383
 2958TIP3    H119697   2.890   4.404   1.475
 2958TIP3    H219698   2.968   4.312   1.385
 2959TIP3   OH219699   2.881   3.936   0.597
 2959TIP3    H119700   2.842   3.995   0.666
 2959TIP3    H219701   2.955   3.993   0.563
 2960TIP3   OH219702   2.456   4.069   0.304
 2960TIP3    H119703   2.442   4.143   0.364
 2960TIP3    H219704   2.544   4.037   0.335
 2961TIP3   OH219705   3.506   4.199   1.540
 2961TIP3    H119706   3.414   4.211   1.570
 2961TIP3    H219707   3.489   4.167   1.450
 2962TIP3   OH219708   3.360   4.522   0.933
 2962TIP3    H119709   3.275   4.473   0.930
 2962TIP3    H219710   3.417   4.458   0.981
 2963TIP3   OH219711   2.319   5.119   0.146
 2963TIP3    H119712   2.363   5.164   0.219
 2963TIP3    H219713   2.392   5.069   0.104
 2964TIP3   OH219714   2.123   4.430   0.155
 2964TIP3    H119715   2.174   4.511   0.134
 2964TIP3    H219716   2.033   4.465   0.157
 2965TIP3   OH219717   2.181   3.890   0.954
 2965TIP3    H119718   2.179   3.859   0.860
 2965TIP3    H219719   2.161   3.805   0.997
 2966TIP3   OH219720   2.545   4.956   0.117
 2966TIP3    H119721   2.546   4.886   0.186
 2966TIP3    H219722   2.588   4.912   0.044
 2967TIP3   OH219723   3.252   4.892   1.467
 2967TIP3    H119724   3.331   4.916   1.520
 2967TIP3    H219725   3.190   4.959   1.502
 2968TIP3   OH219726   2.580   4.763   0.301
 2968TIP3    H119727   2.501   4.725   0.345
 2968TIP3    H219728   2.626   4.680   0.275
 2969TIP3   OH219729   2.703   4.542   0.202
 2969TIP3    H119730   2.694   4.550   0.104
 2969TIP3    H219731   2.801   4.534   0.206
 2970TIP3   OH219732   3.544   4.825   0.103
 2970TIP3    H119733   3.627   4.806   0.056
 2970TIP3    H219734   3.571   4.899   0.160
 2971TIP3   OH219735   2.574   4.295   1.540
 2971TIP3    H119736   2.570   4.218   1.481
 2971TIP3    H219737   2.554   4.367   1.479
 2972TIP3   OH219738   2.584   4.101   1.331
 2972TIP3    H119739   2.651   4.135   1.267
 2972TIP3    H219740   2.501   4.124   1.285
 2973TIP3   OH219741   2.720   4.725   1.399
 2973TIP3    H119742   2.798   4.723   1.343
 2973TIP3    H219743   2.649   4.745   1.336
 2974TIP3   OH219744   2.642   3.834   1.338
 2974TIP3    H119745   2.608   3.926   1.349
 2974TIP3    H219746   2.569   3.794   1.287
 2975TIP3   OH219747   2.776   4.245   1.753
 2975TIP3    H119748   2.719   4.271   1.828
 2975TIP3    H219749   2.715   4.255   1.678
 2976TIP3   OH219750   3.037   4.118   1.653
 2976TIP3    H119751   2.949   4.129   1.691
 2976TIP3    H219752   3.093   4.141   1.729
 2977TIP3   OH219753   2.173   4.188   1.757
 2977TIP3    H119754   2.196   4.100   1.725
 2977TIP3    H219755   2.231   4.198   1.835
 2978TIP3   OH219756   2.656   3.785   1.616
 2978TIP3    H119757   2.708   3.705   1.631
 2978TIP3    H219758   2.655   3.791   1.518
 2979TIP3   OH219759   2.658   3.968   1.876
 2979TIP3    H119760   2.656   3.918   1.793
 2979TIP3    H219761   2.621   4.053   1.849
 2980TIP3   OH219762   1.988   5.038   0.146
 2980TIP3    H119763   2.064   5.094   0.171
 2980TIP3    H219764   1.988   5.050   0.049
 2981TIP3   OH219765   3.688   4.878   0.392
 2981TIP3    H119766   3.721   4.957   0.435
 2981TIP3    H219767   3.693   4.812   0.465
 2982TIP3   OH219768   3.700   4.705   0.603
 2982TIP3    H119769   3.617   4.665   0.636
 2982TIP3    H219770   3.753   4.699   0.685
 2983TIP3   OH219771   3.636   5.018   1.072
 2983TIP3    H119772   3.690   4.944   1.040
 2983TIP3    H219773   3.701   5.089   1.082
 2984TIP3   OH219774   3.734   4.649   0.240
 2984TIP3    H119775   3.641   4.651   0.211
 2984TIP3    H219776   3.735   4.736   0.286
 2985TIP3   OH219777   3.525   4.370   0.141
 2985TIP3    H119778   3.523   4.419   0.055
 2985TIP3    H219779   3.527   4.276   0.113
 2986TIP3   OH219780   3.492   4.570   0.704
 2986TIP3    H119781   3.482   4.478   0.676
 2986TIP3    H219782   3.460   4.563   0.797
 2987TIP3   OH219783   3.503   4.095   0.100
 2987TIP3    H119784   3.591   4.062   0.126
 2987TIP3    H219785   3.449   4.053   0.168
 2988TIP3   OH219786   3.442   4.338   0.511
 2988TIP3    H119787   3.475   4.245   0.509
 2988TIP3    H219788   3.508   4.378   0.452
 2989TIP3   OH219789   3.530   4.342   1.041
 2989TIP3    H119790   3.627   4.365   1.036
 2989TIP3    H219791   3.515   4.363   1.136
 2990TIP3   OH219792   3.541   4.445   1.288
 2990TIP3    H119793   3.458   4.475   1.331
 2990TIP3    H219794   3.585   4.529   1.265
 2991TIP3   OH219795   1.948   4.243   1.619
 2991TIP3    H119796   2.038   4.237   1.661
 2991TIP3    H219797   1.910   4.165   1.663
 2992TIP3   OH219798   3.527   4.074   0.467
 2992TIP3    H119799   3.541   4.051   0.561
 2992TIP3    H219800   3.476   3.994   0.439
 2993TIP3   OH219801   2.014   4.116   0.997
 2993TIP3    H119802   2.075   4.041   0.982
 2993TIP3    H219803   2.077   4.189   1.010
 2994TIP3   OH219804   1.882   4.442   1.057
 2994TIP3    H119805   1.950   4.458   0.987
 2994TIP3    H219806   1.880   4.528   1.104
 2995TIP3   OH219807   3.746   4.004   0.180
 2995TIP3    H119808   3.785   3.962   0.100
 2995TIP3    H219809   3.811   4.074   0.203
 2996TIP3   OH219810   1.890   4.056   0.478
 2996TIP3    H119811   1.848   3.973   0.452
 2996TIP3    H219812   1.935   4.086   0.397
 2997TIP3   OH219813   1.914   3.897   1.299
 2997TIP3    H119814   1.850   3.861   1.362
 2997TIP3    H219815   1.863   3.969   1.258
 2998TIP3   OH219816   3.613   3.821   1.480
 2998TIP3    H119817   3.521   3.828   1.448
 2998TIP3    H219818   3.641   3.736   1.441
 2999TIP3   OH219819   2.869   3.933   0.891
 2999TIP3    H119820   2.794   3.884   0.933
 2999TIP3    H219821   2.925   3.859   0.864
 3000TIP3   OH219822   3.471   3.793   0.902
 3000TIP3    H119823   3.534   3.848   0.851
 3000TIP3    H219824   3.384   3.831   0.873
 3001TIP3   OH219825   3.617   3.942   0.734
 3001TIP3    H119826   3.680   3.880   0.691
 3001TIP3    H219827   3.677   4.021   0.743
 3002TIP3   OH219828   2.173   3.809   0.691
 3002TIP3    H119829   2.090   3.797   0.640
 3002TIP3    H219830   2.211   3.719   0.684
 3003TIP3   OH219831   2.091   3.813   0.290
 3003TIP3    H119832   2.118   3.885   0.227
 3003TIP3    H219833   2.007   3.846   0.327
 3004TIP3   OH219834   2.598   3.819   0.713
 3004TIP3    H119835   2.669   3.814   0.648
 3004TIP3    H219836   2.588   3.915   0.728
 3005TIP3   OH219837   3.211   3.864   0.815
 3005TIP3    H119838   3.150   3.898   0.748
 3005TIP3    H219839   3.162   3.783   0.845
 3006TIP3   OH219840   3.384   3.849   0.401
 3006TIP3    H119841   3.296   3.884   0.382
 3006TIP3    H219842   3.360   3.783   0.469
 3007TIP3   OH219843   2.225   3.974   0.116
 3007TIP3    H119844   2.299   3.927   0.074
 3007TIP3    H219845   2.272   4.032   0.178
 3008TIP3   OH219846   2.730   4.063   0.379
 3008TIP3    H119847   2.782   4.008   0.440
 3008TIP3    H219848   2.755   4.150   0.416
 3009TIP3   OH219849   2.158   3.907   1.649
 3009TIP3    H119850   2.092   3.835   1.648
 3009TIP3    H219851   2.237   3.863   1.687
 3010TIP3   OH219852   2.365   3.812   1.810
 3010TIP3    H119853   2.442   3.814   1.752
 3010TIP3    H219854   2.401   3.769   1.889
 3011TIP3   OH219855   4.974   4.821   0.657
 3011TIP3    H119856   4.913   4.857   0.723
 3011TIP3    H219857   4.915   4.772   0.597
 3012TIP3   OH219858   4.836   4.709   1.045
 3012TIP3    H119859   4.827   4.643   1.116
 3012TIP3    H219860   4.825   4.655   0.965
 3013TIP3   OH219861   4.083   4.655   1.196
 3013TIP3    H119862   4.079   4.585   1.262
 3013TIP3    H219863   4.175   4.686   1.200
 3014TIP3   OH219864   4.148   5.059   1.035
 3014TIP3    H119865   4.116   4.976   0.995
 3014TIP3    H219866   4.244   5.053   1.012
 3015TIP3   OH219867   3.861   4.457   0.556
 3015TIP3    H119868   3.841   4.553   0.555
 3015TIP3    H219869   3.795   4.420   0.494
 3016TIP3   OH219870   3.914   4.716   0.808
 3016TIP3    H119871   3.935   4.620   0.820
 3016TIP3    H219872   4.003   4.755   0.802
 3017TIP3   OH219873   4.677   5.000   1.144
 3017TIP3    H119874   4.692   4.970   1.054
 3017TIP3    H219875   4.764   4.975   1.184
 3018TIP3   OH219876   4.994   4.352   1.114
 3018TIP3    H119877   5.090   4.339   1.096
 3018TIP3    H219878   4.971   4.396   1.029
 3019TIP3   OH219879   4.336   4.122   0.788
 3019TIP3    H119880   4.344   4.214   0.758
 3019TIP3    H219881   4.282   4.085   0.715
 3020TIP3   OH219882   5.048   4.233   0.683
 3020TIP3    H119883   5.116   4.180   0.731
 3020TIP3    H219884   5.103   4.291   0.628
 3021TIP3   OH219885   3.973   4.455   0.868
 3021TIP3    H119886   4.040   4.425   0.932
 3021TIP3    H219887   3.992   4.393   0.794
 3022TIP3   OH219888   4.489   4.559   0.865
 3022TIP3    H119889   4.576   4.517   0.865
 3022TIP3    H219890   4.434   4.492   0.818
 3023TIP3   OH219891   4.199   4.061   1.189
 3023TIP3    H119892   4.188   4.109   1.104
 3023TIP3    H219893   4.155   4.127   1.246
 3024TIP3   OH219894   4.876   5.074   0.571
 3024TIP3    H119895   4.876   5.030   0.483
 3024TIP3    H219896   4.789   5.047   0.605
 3025TIP3   OH219897   4.417   4.861   1.207
 3025TIP3    H119898   4.365   4.934   1.246
 3025TIP3    H219899   4.486   4.914   1.163
 3026TIP3   OH219900   4.177   4.262   1.000
 3026TIP3    H119901   4.231   4.329   1.047
 3026TIP3    H219902   4.230   4.249   0.919
 3027TIP3   OH219903   4.280   5.073   1.309
 3027TIP3    H119904   4.219   5.100   1.240
 3027TIP3    H219905   4.220   5.033   1.378
 3028TIP3   OH219906   3.949   5.036   0.428
 3028TIP3    H119907   3.887   5.008   0.358
 3028TIP3    H219908   3.974   5.120   0.384
 3029TIP3   OH219909   4.588   3.808   0.933
 3029TIP3    H119910   4.588   3.710   0.944
 3029TIP3    H219911   4.518   3.830   0.998
 3030TIP3   OH219912   4.837   4.695   0.444
 3030TIP3    H119913   4.771   4.742   0.391
 3030TIP3    H219914   4.920   4.705   0.388
 3031TIP3   OH219915   4.864   4.537   0.142
 3031TIP3    H119916   4.942   4.584   0.174
 3031TIP3    H219917   4.905   4.467   0.087
 3032TIP3   OH219918   5.219   4.787   0.538
 3032TIP3    H119919   5.128   4.784   0.575
 3032TIP3    H219920   5.262   4.848   0.599
 3033TIP3   OH219921   5.112   4.488   1.439
 3033TIP3    H119922   5.077   4.560   1.492
 3033TIP3    H219923   5.106   4.523   1.349
 3034TIP3   OH219924   4.382   4.741   0.691
 3034TIP3    H119925   4.345   4.703   0.608
 3034TIP3    H219926   4.414   4.664   0.742
 3035TIP3   OH219927   4.416   5.048   0.956
 3035TIP3    H119928   4.424   5.102   0.874
 3035TIP3    H219929   4.458   5.105   1.021
 3036TIP3   OH219930   4.340   4.625   1.072
 3036TIP3    H119931   4.398   4.613   0.993
 3036TIP3    H219932   4.386   4.700   1.114
 3037TIP3   OH219933   4.432   5.129   1.557
 3037TIP3    H119934   4.473   5.206   1.602
 3037TIP3    H219935   4.354   5.168   1.514
 3038TIP3   OH219936   5.077   4.708   0.317
 3038TIP3    H119937   5.151   4.743   0.370
 3038TIP3    H219938   5.104   4.731   0.225
 3039TIP3   OH219939   4.148   4.576   1.498
 3039TIP3    H119940   4.187   4.559   1.586
 3039TIP3    H219941   4.146   4.672   1.507
 3040TIP3   OH219942   4.240   4.653   0.454
 3040TIP3    H119943   4.204   4.742   0.442
 3040TIP3    H219944   4.162   4.602   0.436
 3041TIP3   OH219945   3.845   4.940   1.360
 3041TIP3    H119946   3.834   4.938   1.264
 3041TIP3    H219947   3.867   4.846   1.379
 3042TIP3   OH219948   4.092   4.964   1.458
 3042TIP3    H119949   4.074   4.955   1.554
 3042TIP3    H219950   4.001   4.971   1.424
 3043TIP3   OH219951   4.360   3.887   1.045
 3043TIP3    H119952   4.359   3.907   0.949
 3043TIP3    H219953   4.320   3.969   1.079
 3044TIP3   OH219954   4.840   3.844   1.402
 3044TIP3    H119955   4.874   3.832   1.493
 3044TIP3    H219956   4.742   3.847   1.415
 3045TIP3   OH219957   5.133   4.206   1.470
 3045TIP3    H119958   5.122   4.207   1.567
 3045TIP3    H219959   5.129   4.301   1.450
 3046TIP3   OH219960   4.788   4.099   0.087
 3046TIP3    H119961   4.728   4.095   0.164
 3046TIP3    H219962   4.754   4.026   0.034
 3047TIP3   OH219963   4.323   4.385   1.190
 3047TIP3    H119964   4.234   4.387   1.234
 3047TIP3    H219965   4.330   4.476   1.153
 3048TIP3   OH219966   4.341   4.383   0.716
 3048TIP3    H119967   4.265   4.418   0.666
 3048TIP3    H219968   4.400   4.364   0.639
 3049TIP3   OH219969   4.915   4.483   0.576
 3049TIP3    H119970   4.866   4.556   0.530
 3049TIP3    H219971   4.975   4.452   0.505
 3050TIP3   OH219972   4.817   4.522   1.670
 3050TIP3    H119973   4.766   4.476   1.739
 3050TIP3    H219974   4.902   4.477   1.677
 3051TIP3   OH219975   4.975   4.438   0.842
 3051TIP3    H119976   4.984   4.503   0.770
 3051TIP3    H219977   4.998   4.358   0.790
 3052TIP3   OH219978   4.070   4.383   1.311
 3052TIP3    H119979   4.110   4.447   1.373
 3052TIP3    H219980   4.010   4.337   1.371
 3053TIP3   OH219981   4.421   4.207   0.037
 3053TIP3    H119982   4.428   4.138   0.106
 3053TIP3    H219983   4.383   4.278   0.092
 3054TIP3   OH219984   3.787   4.142   0.760
 3054TIP3    H119985   3.826   4.192   0.833
 3054TIP3    H219986   3.845   4.164   0.685
 3055TIP3   OH219987   3.916   4.182   0.273
 3055TIP3    H119988   3.981   4.231   0.219
 3055TIP3    H219989   3.857   4.257   0.294
 3056TIP3   OH219990   4.893   4.554   1.271
 3056TIP3    H119991   4.964   4.512   1.221
 3056TIP3    H219992   4.900   4.514   1.360
 3057TIP3   OH219993   4.654   4.193   0.798
 3057TIP3    H119994   4.562   4.163   0.807
 3057TIP3    H219995   4.705   4.117   0.835
 3058TIP3   OH219996   4.025   4.260   0.645
 3058TIP3    H119997   3.970   4.310   0.581
 3058TIP3    H219998   4.058   4.187   0.589
 3059TIP3   OH219999   4.448   4.340   0.479
 3059TIP3    H120000   4.546   4.334   0.484
 3059TIP3    H220001   4.432   4.385   0.395
 3060TIP3   OH220002   5.105   4.020   1.104
 3060TIP3    H120003   5.023   4.057   1.138
 3060TIP3    H220004   5.083   3.990   1.014
 3061TIP3   OH220005   4.300   4.472   0.152
 3061TIP3    H120006   4.298   4.467   0.055
 3061TIP3    H220007   4.395   4.481   0.171
 3062TIP3   OH220008   4.114   4.951   1.724
 3062TIP3    H120009   4.199   4.998   1.717
 3062TIP3    H220010   4.143   4.878   1.782
 3063TIP3   OH220011   4.750   4.391   0.971
 3063TIP3    H120012   4.814   4.411   0.899
 3063TIP3    H220013   4.707   4.314   0.931
 3064TIP3   OH220014   4.189   4.031   0.580
 3064TIP3    H120015   4.123   3.979   0.631
 3064TIP3    H220016   4.243   3.958   0.545
 3065TIP3   OH220017   4.565   4.308   1.279
 3065TIP3    H120018   4.488   4.352   1.237
 3065TIP3    H220019   4.584   4.372   1.350
 3066TIP3   OH220020   4.648   4.894   0.391
 3066TIP3    H120021   4.570   4.841   0.361
 3066TIP3    H220022   4.615   4.933   0.475
 3067TIP3   OH220023   4.972   4.157   0.267
 3067TIP3    H120024   4.900   4.128   0.206
 3067TIP3    H220025   5.023   4.211   0.201
 3068TIP3   OH220026   4.825   4.967   1.535
 3068TIP3    H120027   4.744   4.923   1.507
 3068TIP3    H220028   4.807   5.058   1.504
 3069TIP3   OH220029   5.133   4.354   0.419
 3069TIP3    H120030   5.134   4.266   0.378
 3069TIP3    H220031   5.115   4.404   0.337
 3070TIP3   OH220032   4.180   4.811   0.918
 3070TIP3    H120033   4.259   4.852   0.878
 3070TIP3    H220034   4.218   4.752   0.986
 3071TIP3   OH220035   4.860   5.015   0.300
 3071TIP3    H120036   4.842   5.035   0.208
 3071TIP3    H220037   4.777   4.968   0.324
 3072TIP3   OH220038   3.844   4.687   1.455
 3072TIP3    H120039   3.857   4.609   1.509
 3072TIP3    H220040   3.793   4.650   1.381
 3073TIP3   OH220041   5.028   5.189   1.594
 3073TIP3    H120042   5.077   5.171   1.513
 3073TIP3    H220043   4.939   5.198   1.555
 3074TIP3   OH220044   5.112   4.778   1.127
 3074TIP3    H120045   5.060   4.776   1.045
 3074TIP3    H220046   5.203   4.786   1.091
 3075TIP3   OH220047   4.312  -0.015   0.736
 3075TIP3    H120048   4.347   0.064   0.689
 3075TIP3    H220049   4.237  -0.040   0.680
 3076TIP3   OH220050   4.016   4.714   0.060
 3076TIP3    H120051   4.075   4.779   0.104
 3076TIP3    H220052   3.947   4.707   0.128
 3077TIP3   OH220053   4.554   4.986   0.636
 3077TIP3    H120054   4.486   5.043   0.675
 3077TIP3    H220055   4.528   4.897   0.669
 3078TIP3   OH220056   4.912   4.923   1.259
 3078TIP3    H120057   4.902   4.884   1.347
 3078TIP3    H220058   4.965   4.854   1.214
 3079TIP3   OH220059   5.139   5.050   0.254
 3079TIP3    H120060   5.137   4.982   0.182
 3079TIP3    H220061   5.046   5.043   0.282
 3080TIP3   OH220062   4.500   5.172   0.304
 3080TIP3    H120063   4.482   5.116   0.381
 3080TIP3    H220064   4.510   5.260   0.342
 3081TIP3   OH220065   4.121   4.879   0.252
 3081TIP3    H120066   4.045   4.923   0.295
 3081TIP3    H220067   4.166   4.957   0.212
 3082TIP3   OH220068   4.881   4.101   1.332
 3082TIP3    H120069   4.957   4.123   1.389
 3082TIP3    H220070   4.869   4.006   1.354
 3083TIP3   OH220071   4.968   4.046   0.514
 3083TIP3    H120072   4.951   4.090   0.427
 3083TIP3    H220073   4.989   4.123   0.572
 3084TIP3   OH220074   4.727   4.275   0.524
 3084TIP3    H120075   4.807   4.326   0.545
 3084TIP3    H220076   4.723   4.218   0.603
 3085TIP3   OH220077   4.767   4.375   1.451
 3085TIP3    H120078   4.754   4.444   1.520
 3085TIP3    H220079   4.779   4.295   1.506
 3086TIP3   OH220080   4.733   3.938   0.580
 3086TIP3    H120081   4.732   3.968   0.673
 3086TIP3    H220082   4.827   3.959   0.557
 3087TIP3   OH220083   4.387   4.097   0.288
 3087TIP3    H120084   4.354   4.156   0.358
 3087TIP3    H220085   4.468   4.060   0.327
 3088TIP3   OH220086   4.208   5.112   0.148
 3088TIP3    H120087   4.254   5.159   0.219
 3088TIP3    H220088   4.279   5.062   0.102
 3089TIP3   OH220089   3.992   4.421   0.154
 3089TIP3    H120090   4.069   4.481   0.141
 3089TIP3    H220091   3.916   4.479   0.136
 3090TIP3   OH220092   4.064   3.876   0.943
 3090TIP3    H120093   4.074   3.868   0.845
 3090TIP3    H220094   4.012   3.794   0.955
 3091TIP3   OH220095   4.410   4.930   0.104
 3091TIP3    H120096   4.413   4.870   0.181
 3091TIP3    H220097   4.492   4.905   0.060
 3092TIP3   OH220098   5.081   4.845   1.560
 3092TIP3    H120099   5.129   4.901   1.497
 3092TIP3    H220100   4.992   4.886   1.559
 3093TIP3   OH220101   4.461   4.732   0.294
 3093TIP3    H120102   4.383   4.686   0.331
 3093TIP3    H220103   4.504   4.657   0.249
 3094TIP3   OH220104   4.442   4.536   1.465
 3094TIP3    H120105   4.403   4.594   1.533
 3094TIP3    H220106   4.483   4.600   1.403
 3095TIP3   OH220107   4.585   4.506   0.177
 3095TIP3    H120108   4.561   4.520   0.082
 3095TIP3    H220109   4.683   4.513   0.170
 3096TIP3   OH220110   4.440   4.285   1.556
 3096TIP3    H120111   4.405   4.219   1.496
 3096TIP3    H220112   4.444   4.369   1.504
 3097TIP3   OH220113   4.443   4.072   1.347
 3097TIP3    H120114   4.498   4.148   1.317
 3097TIP3    H220115   4.356   4.097   1.315
 3098TIP3   OH220116   4.583   4.666   1.278
 3098TIP3    H120117   4.664   4.718   1.284
 3098TIP3    H220118   4.516   4.735   1.260
 3099TIP3   OH220119   4.278   4.364   1.764
 3099TIP3    H120120   4.350   4.334   1.705
 3099TIP3    H220121   4.287   4.461   1.751
 3100TIP3   OH220122   4.575   3.832   1.409
 3100TIP3    H120123   4.543   3.919   1.377
 3100TIP3    H220124   4.541   3.769   1.343
 3101TIP3   OH220125   4.636   4.293   1.744
 3101TIP3    H120126   4.596   4.310   1.831
 3101TIP3    H220127   4.560   4.266   1.689
 3102TIP3   OH220128   4.887   4.184   1.674
 3102TIP3    H120129   4.802   4.213   1.713
 3102TIP3    H220130   4.901   4.099   1.718
 3103TIP3   OH220131   5.124   4.035   1.885
 3103TIP3    H120132   5.052   3.982   1.927
 3103TIP3    H220133   5.135   4.104   1.954
 3104TIP3   OH220134   4.591   3.849   1.682
 3104TIP3    H120135   4.634   3.762   1.670
 3104TIP3    H220136   4.567   3.863   1.588
 3105TIP3   OH220137   4.680   4.007   1.890
 3105TIP3    H120138   4.631   3.954   1.824
 3105TIP3    H220139   4.621   4.084   1.896
 3106TIP3   OH220140   3.890   5.032   0.152
 3106TIP3    H120141   3.971   5.085   0.155
 3106TIP3    H220142   3.868   5.043   0.058
 3107TIP3   OH220143   3.874   4.777   1.064
 3107TIP3    H120144   3.868   4.749   0.971
 3107TIP3    H220145   3.964   4.748   1.089
 3108TIP3   OH220146   3.877   4.291   1.626
 3108TIP3    H120147   3.897   4.275   1.720
 3108TIP3    H220148   3.782   4.305   1.628
 3109TIP3   OH220149   3.948   4.101   1.031
 3109TIP3    H120150   3.983   4.022   0.984
 3109TIP3    H220151   4.015   4.167   1.007
 3110TIP3   OH220152   3.778   4.431   1.050
 3110TIP3    H120153   3.837   4.434   0.972
 3110TIP3    H220154   3.822   4.492   1.111
 3111TIP3   OH220155   3.834   4.000   0.471
 3111TIP3    H120156   3.739   4.000   0.452
 3111TIP3    H220157   3.864   4.060   0.400
 3112TIP3   OH220158   3.821   3.891   1.308
 3112TIP3    H120159   3.751   3.865   1.372
 3112TIP3    H220160   3.776   3.962   1.257
 3113TIP3   OH220161   4.786   3.971   0.865
 3113TIP3    H120162   4.739   3.897   0.907
 3113TIP3    H220163   4.866   3.926   0.830
 3114TIP3   OH220164   4.039   3.807   0.682
 3114TIP3    H120165   3.953   3.796   0.635
 3114TIP3    H220166   4.084   3.722   0.659
 3115TIP3   OH220167   3.984   3.818   0.291
 3115TIP3    H120168   4.001   3.895   0.234
 3115TIP3    H220169   3.907   3.847   0.343
 3116TIP3   OH220170   4.449   3.824   0.695
 3116TIP3    H120171   4.516   3.836   0.625
 3116TIP3    H220172   4.503   3.840   0.774
 3117TIP3   OH220173   5.019   3.835   0.809
 3117TIP3    H120174   5.108   3.817   0.774
 3117TIP3    H220175   5.001   3.755   0.862
 3118TIP3   OH220176   4.118   3.995   0.116
 3118TIP3    H120177   4.186   3.936   0.081
 3118TIP3    H220178   4.167   4.056   0.173
 3119TIP3   OH220179   4.670   4.057   0.336
 3119TIP3    H120180   4.677   4.005   0.419
 3119TIP3    H220181   4.694   4.145   0.371
 3120TIP3   OH220182   5.163   3.743   1.881
 3120TIP3    H120183   5.130   3.737   1.972
 3120TIP3    H220184   5.179   3.839   1.873
 3121TIP3   OH220185   1.502   1.003   1.939
 3121TIP3    H120186   1.450   0.978   1.860
 3121TIP3    H220187   1.571   1.056   1.899
 3122TIP3   OH220188   0.549   1.148   1.863
 3122TIP3    H120189   0.618   1.127   1.927
 3122TIP3    H220190   0.574   1.240   1.841
 3123TIP3   OH220191   0.379   1.714   1.953
 3123TIP3    H120192   0.359   1.729   2.047
 3123TIP3    H220193   0.462   1.663   1.954
 3124TIP3   OH220194   2.517   0.349   1.968
 3124TIP3    H120195   2.570   0.377   2.045
 3124TIP3    H220196   2.500   0.431   1.919
 3125TIP3   OH220197   3.566   0.401   1.963
 3125TIP3    H120198   3.616   0.331   2.010
 3125TIP3    H220199   3.477   0.368   1.982
 3126TIP3   OH220200   4.822   1.635   1.875
 3126TIP3    H120201   4.777   1.582   1.942
 3126TIP3    H220202   4.890   1.572   1.841
 3127TIP3   OH220203   4.533   0.804   1.910
 3127TIP3    H120204   4.530   0.845   1.821
 3127TIP3    H220205   4.602   0.853   1.955
 3128TIP3   OH220206   0.324   3.595   2.002
 3128TIP3    H120207   0.252   3.534   1.978
 3128TIP3    H220208   0.402   3.540   1.992
 3129TIP3   OH220209   3.351   2.885   1.974
 3129TIP3    H120210   3.313   2.888   1.885
 3129TIP3    H220211   3.425   2.823   1.965
 3130TIP3   OH220212   4.169   3.592   1.916
 3130TIP3    H120213   4.208   3.681   1.917
 3130TIP3    H220214   4.236   3.536   1.958
 3131TIP3   OH220215   0.753   5.121   1.901
 3131TIP3    H120216   0.843   5.120   1.864
 3131TIP3    H220217   0.757   5.195   1.965
 3132TIP3   OH220218   1.598   4.396   1.917
 3132TIP3    H120219   1.664   4.383   1.848
 3132TIP3    H220220   1.562   4.306   1.921
 3133TIP3   OH220221   1.597   4.118   1.908
 3133TIP3    H120222   1.649   4.127   1.990
 3133TIP3    H220223   1.515   4.076   1.938
 3134TIP3   OH220224   2.616   5.150   1.860
 3134TIP3    H120225   2.589   5.093   1.785
 3134TIP3    H220226   2.587   5.097   1.936
 3135TIP3   OH220227   2.152   4.441   2.026
 3135TIP3    H120228   2.100   4.516   1.996
 3135TIP3    H220229   2.100   4.363   1.998
 3136TIP3   OH220230   4.397   4.151   1.884
 3136TIP3    H120231   4.319   4.107   1.922
 3136TIP3    H220232   4.360   4.238   1.861
 3137TIP3   OH220233   4.457   5.172   1.872
 3137TIP3    H120234   4.502   5.111   1.812
 3137TIP3    H220235   4.526   5.215   1.925
 3138TIP3   OH220236   4.882   5.006   1.901
 3138TIP3    H120237   4.835   5.088   1.922
 3138TIP3    H220238   4.833   4.976   1.824
   5.19134   5.19134   8.00000   0.00000   0.00000   0.00000   0.00000   0.00000   0.00000
